
     Program PWSCF v.6.7MaX starts on 20May2022 at 16: 5:13 

     This program is part of the open-source Quantum ESPRESSO suite
     for quantum simulation of materials; please cite
         "P. Giannozzi et al., J. Phys.:Condens. Matter 21 395502 (2009);
         "P. Giannozzi et al., J. Phys.:Condens. Matter 29 465901 (2017);
          URL http://www.quantum-espresso.org", 
     in publications or presentations arising from this work. More details at
     http://www.quantum-espresso.org/quote

     Parallel version (MPI), running on     1 processors

     MPI processes distributed on     1 nodes
     Reading input from nc3h5-ensemble.in
Warning: card &CELL ignored
Warning: card / ignored

     Current dimensions of program PWSCF are:
     Max number of different atomic species (ntypx) = 10
     Max number of k-points (npk) =  40000
     Max angular momentum in pseudopotentials (lmaxx) =  3
     file Pt.pbe-n-kjpaw_psl.1.0.0.UPF: wavefunction(s)  6S 5D renormalized
     file C.pbe-n-kjpaw_psl.1.0.0.UPF: wavefunction(s)  2S 2P renormalized
     file H.pbe-kjpaw_psl.1.0.0.UPF: wavefunction(s)  1S renormalized

     **************************************************************************
     Initializing libbeef V0.1.2 with the BEEF-vdW functional.
     Citation: Wellendorff et al., PRB 85, 235149 (2012).
     **************************************************************************


     IMPORTANT: XC functional enforced from input :
     Exchange-correlation= BEEF-VDW
                           (   1   4  43  14   2   0   0)
     Any further DFT definition will be discarded
     Please, verify this is what you really want


     Subspace diagonalization in iterative solution of the eigenvalue problem:
     a serial algorithm will be used

 
     G-vector sticks info
     --------------------
     sticks:   dense  smooth     PW     G-vecs:    dense   smooth      PW
     Sum        4267    4267   1159               703731   703731   99339
 


     bravais-lattice index     =            0
     lattice parameter (alat)  =      16.0349  a.u.
     unit-cell volume          =   11203.1378 (a.u.)^3
     number of atoms/cell      =           44
     number of atomic types    =            3
     number of electrons       =       377.00
     number of Kohn-Sham states=          227
     kinetic-energy cutoff     =      60.0000  Ry
     charge density cutoff     =     240.0000  Ry
     scf convergence threshold =      1.0E-06
     mixing beta               =       0.7000
     number of iterations used =            8  local-TF  mixing
     Exchange-correlation= BEEF-VDW
                           (   1   4  43  14   2   0   0)

     celldm(1)=  16.034858  celldm(2)=   0.000000  celldm(3)=   0.000000
     celldm(4)=   0.000000  celldm(5)=   0.000000  celldm(6)=   0.000000

     crystal axes: (cart. coord. in units of alat)
               a(1) = (   1.000000   0.000000   0.000000 )  
               a(2) = (   0.500000   0.866025   0.000000 )  
               a(3) = (   0.000000   0.000000   3.137716 )  

     reciprocal axes: (cart. coord. in units 2 pi/alat)
               b(1) = (  1.000000 -0.577350  0.000000 )  
               b(2) = (  0.000000  1.154701  0.000000 )  
               b(3) = (  0.000000  0.000000  0.318703 )  


     PseudoPot. # 1 for Pt read from file:
     /users/bkreitz1/quantum-espresso/potentials/Pt.pbe-n-kjpaw_psl.1.0.0.UPF
     MD5 check sum: 04dc8a03c51ece93fc7b5889c2958091
     Pseudo is Projector augmented-wave + core cor, Zval = 10.0
     Generated using 'atomic' code by A. Dal Corso  v.6.7MaX
     Shape of augmentation charge: PSQ
     Using radial grid of 1277 points,  6 beta functions with: 
                l(1) =   0
                l(2) =   0
                l(3) =   1
                l(4) =   1
                l(5) =   2
                l(6) =   2
     Q(r) pseudized with 0 coefficients 


     PseudoPot. # 2 for C  read from file:
     /users/bkreitz1/quantum-espresso/potentials/C.pbe-n-kjpaw_psl.1.0.0.UPF
     MD5 check sum: a169b0ebad56f5ec0d79c4633f80bf22
     Pseudo is Projector augmented-wave + core cor, Zval =  4.0
     Generated using 'atomic' code by A. Dal Corso  v.6.7MaX
     Shape of augmentation charge: PSQ
     Using radial grid of 1073 points,  4 beta functions with: 
                l(1) =   0
                l(2) =   0
                l(3) =   1
                l(4) =   1
     Q(r) pseudized with 0 coefficients 


     PseudoPot. # 3 for H  read from file:
     /users/bkreitz1/quantum-espresso/potentials/H.pbe-kjpaw_psl.1.0.0.UPF
     MD5 check sum: ae98473e6dc62675f0d0baffdab24f65
     Pseudo is Projector augmented-wave, Zval =  1.0
     Generated using 'atomic' code by A. Dal Corso  v.6.7MaX
     Shape of augmentation charge: PSQ
     Using radial grid of  929 points,  2 beta functions with: 
                l(1) =   0
                l(2) =   0
     Q(r) pseudized with 0 coefficients 


     atomic species   valence    mass     pseudopotential
        Pt            10.00   195.08400     Pt( 1.00)
        C              4.00    12.01100     C ( 1.00)
        H              1.00     1.00800     H ( 1.00)

     No symmetry found



   Cartesian axes

     site n.     atom                  positions (alat units)
         1           Pt  tau(   1) = (   0.0000000   0.0000000   1.0017346  )
         2           Pt  tau(   2) = (   0.3333333   0.0000000   1.0017346  )
         3           Pt  tau(   3) = (   0.6666667   0.0000000   1.0017346  )
         4           Pt  tau(   4) = (   0.1666667   0.2886751   1.0017346  )
         5           Pt  tau(   5) = (   0.5000000   0.2886751   1.0017346  )
         6           Pt  tau(   6) = (   0.8333333   0.2886751   1.0017346  )
         7           Pt  tau(   7) = (   0.3333333   0.5773503   1.0017346  )
         8           Pt  tau(   8) = (   0.6666667   0.5773503   1.0017346  )
         9           Pt  tau(   9) = (   1.0000000   0.5773503   1.0017346  )
        10           Pt  tau(  10) = (   0.1666667   0.0962250   1.2739001  )
        11           Pt  tau(  11) = (   0.5000000   0.0962250   1.2739001  )
        12           Pt  tau(  12) = (   0.8333333   0.0962250   1.2739001  )
        13           Pt  tau(  13) = (   0.3333333   0.3849002   1.2739001  )
        14           Pt  tau(  14) = (   0.6666667   0.3849002   1.2739001  )
        15           Pt  tau(  15) = (   1.0000000   0.3849002   1.2739001  )
        16           Pt  tau(  16) = (   0.5000000   0.6735753   1.2739001  )
        17           Pt  tau(  17) = (   0.8333333   0.6735753   1.2739001  )
        18           Pt  tau(  18) = (   1.1666667   0.6735753   1.2739001  )
        19           Pt  tau(  19) = (  -0.0000546   0.1924768   1.5397954  )
        20           Pt  tau(  20) = (   0.3350334   0.1940901   1.5461823  )
        21           Pt  tau(  21) = (   0.6643920   0.1940686   1.5461931  )
        22           Pt  tau(  22) = (   0.1661264   0.4812508   1.5409868  )
        23           Pt  tau(  23) = (   0.5012821   0.4799302   1.5487356  )
        24           Pt  tau(  24) = (   0.8310726   0.4822744   1.5456053  )
        25           Pt  tau(  25) = (   0.3329753   0.7702115   1.5409333  )
        26           Pt  tau(  26) = (   0.6661625   0.7677517   1.5456263  )
        27           Pt  tau(  27) = (   0.9993109   0.7702095   1.5421221  )
        28           Pt  tau(  28) = (  -0.0013685   0.0021693   1.8158549  )
        29           Pt  tau(  29) = (   0.3319053   0.0006910   1.8158093  )
        30           Pt  tau(  30) = (   0.6655556   0.0004018   1.8153969  )
        31           Pt  tau(  31) = (   0.1638914   0.2890914   1.8158922  )
        32           Pt  tau(  32) = (   0.4980209   0.2885420   1.8389271  )
        33           Pt  tau(  33) = (   0.8362133   0.2874410   1.8136954  )
        34           Pt  tau(  34) = (   0.3279525   0.5810948   1.8121331  )
        35           Pt  tau(  35) = (   0.6667907   0.5795591   1.8360376  )
        36           Pt  tau(  36) = (   0.9990566   0.5783236   1.8157897  )
        37           C   tau(  37) = (   0.5137314   0.2885675   2.0934633  )
        38           C   tau(  38) = (   0.5149769   0.4563948   2.0949479  )
        39           C   tau(  39) = (   0.6539785   0.5533744   2.0870421  )
        40           H   tau(  40) = (   0.4076761   0.2310328   2.1359819  )
        41           H   tau(  41) = (   0.6228856   0.2282327   2.1225872  )
        42           H   tau(  42) = (   0.4024596   0.5161927   2.1090006  )
        43           H   tau(  43) = (   0.6402813   0.6722980   2.1325681  )
        44           H   tau(  44) = (   0.7637962   0.4968046   2.1214339  )

     number of k points=    13  Marzari-Vanderbilt smearing, width (Ry)=  0.0200
                       cart. coord. in units 2pi/alat
        k(    1) = (   0.0000000   0.0000000   0.0000000), wk =   0.0800000
        k(    2) = (   0.0000000   0.2309401   0.0000000), wk =   0.1600000
        k(    3) = (   0.0000000   0.4618802   0.0000000), wk =   0.1600000
        k(    4) = (   0.2000000  -0.1154701   0.0000000), wk =   0.1600000
        k(    5) = (   0.2000000   0.1154701   0.0000000), wk =   0.1600000
        k(    6) = (   0.2000000   0.3464102   0.0000000), wk =   0.1600000
        k(    7) = (   0.2000000  -0.5773503   0.0000000), wk =   0.1600000
        k(    8) = (   0.2000000  -0.3464102   0.0000000), wk =   0.1600000
        k(    9) = (   0.4000000  -0.2309401   0.0000000), wk =   0.1600000
        k(   10) = (   0.4000000  -0.0000000   0.0000000), wk =   0.1600000
        k(   11) = (   0.4000000   0.2309401   0.0000000), wk =   0.1600000
        k(   12) = (   0.4000000  -0.6928203   0.0000000), wk =   0.1600000
        k(   13) = (   0.4000000  -0.4618802   0.0000000), wk =   0.1600000

     Dense  grid:   703731 G-vectors     FFT dimensions: (  80,  80, 250)

     Estimated max dynamical RAM per process >       8.56 GB

     Check: negative core charge=   -0.000002

     Initial potential from superposition of free atoms

     starting charge  376.99372, renormalised to  377.00000

     negative rho (up, down):  1.106E-02 0.000E+00


     %%%%%%%%%%%%%%%%%%%%%%%%%%%%%%%%%%%%%%%%%%%%%%%%%%%%%%%%%%%%%%%%%%%%%%%%
     %                                                                      %
     % You are using vdW-DF, which was implemented by the Thonhauser group. %
     % Please cite the following two papers that made this development      %
     % possible and the two reviews that describe the various versions:     %
     %                                                                      %
     %   T. Thonhauser et al., PRL 115, 136402 (2015).                      %
     %   T. Thonhauser et al., PRB 76, 125112 (2007).                       %
     %   K. Berland et al., Rep. Prog. Phys. 78, 066501 (2015).             %
     %   D.C. Langreth et al., J. Phys.: Condens. Matter 21, 084203 (2009). %
     %                                                                      %
     %                                                                      %
     % If you are calculating the stress with vdW-DF, please also cite:     %
     %                                                                      %
     %   R. Sabatini et al., J. Phys.: Condens. Matter 24, 424209 (2012).   %
     %                                                                      %
     %%%%%%%%%%%%%%%%%%%%%%%%%%%%%%%%%%%%%%%%%%%%%%%%%%%%%%%%%%%%%%%%%%%%%%%%


     Starting wfcs are  341 randomized atomic wfcs
     Checking if some PAW data can be deallocated... 

     total cpu time spent up to now is      332.4 secs

     Self-consistent Calculation

     iteration #  1     ecut=    60.00 Ry     beta= 0.70
     Davidson diagonalization with overlap
     ethr =  1.00E-02,  avg # of iterations =  2.5

     Threshold (ethr) on eigenvalues was too large:
     Diagonalizing with lowered threshold

     Davidson diagonalization with overlap
     ethr =  9.63E-04,  avg # of iterations =  2.2

     negative rho (up, down):  1.137E-02 0.000E+00

     total cpu time spent up to now is     1554.4 secs

     total energy              =  -27817.04724003 Ry
     estimated scf accuracy    <       3.87438528 Ry

     iteration #  2     ecut=    60.00 Ry     beta= 0.70
     Davidson diagonalization with overlap
     ethr =  1.03E-03,  avg # of iterations =  2.0

     negative rho (up, down):  8.909E-03 0.000E+00

     total cpu time spent up to now is     2136.4 secs

     total energy              =  -27817.25764194 Ry
     estimated scf accuracy    <       1.18670722 Ry

     iteration #  3     ecut=    60.00 Ry     beta= 0.70
     Davidson diagonalization with overlap
     ethr =  3.15E-04,  avg # of iterations =  7.2

     negative rho (up, down):  6.037E-03 0.000E+00

     total cpu time spent up to now is     2783.9 secs

     total energy              =  -27817.32236460 Ry
     estimated scf accuracy    <       0.49054263 Ry

     iteration #  4     ecut=    60.00 Ry     beta= 0.70
     Davidson diagonalization with overlap
     ethr =  1.30E-04,  avg # of iterations =  8.0

     negative rho (up, down):  4.363E-03 0.000E+00

     total cpu time spent up to now is     3494.3 secs

     total energy              =  -27817.37484738 Ry
     estimated scf accuracy    <       0.20258228 Ry

     iteration #  5     ecut=    60.00 Ry     beta= 0.70
     Davidson diagonalization with overlap
     ethr =  5.37E-05,  avg # of iterations =  5.9

     negative rho (up, down):  2.763E-03 0.000E+00

     total cpu time spent up to now is     4160.4 secs

     total energy              =  -27817.38609470 Ry
     estimated scf accuracy    <       0.06466729 Ry

     iteration #  6     ecut=    60.00 Ry     beta= 0.70
     Davidson diagonalization with overlap
     c_bands:  1 eigenvalues not converged
     c_bands:  1 eigenvalues not converged
     c_bands:  1 eigenvalues not converged
     ethr =  1.72E-05,  avg # of iterations = 15.7

     negative rho (up, down):  2.304E-03 0.000E+00

     total cpu time spent up to now is     5011.0 secs

     total energy              =  -27817.39503704 Ry
     estimated scf accuracy    <       0.00848443 Ry

     iteration #  7     ecut=    60.00 Ry     beta= 0.70
     Davidson diagonalization with overlap
     c_bands:  1 eigenvalues not converged
     c_bands:  1 eigenvalues not converged
     c_bands:  1 eigenvalues not converged
     c_bands:  1 eigenvalues not converged
     c_bands:  1 eigenvalues not converged
     ethr =  2.25E-06,  avg # of iterations = 14.7

     negative rho (up, down):  2.188E-03 0.000E+00

     total cpu time spent up to now is     6001.8 secs

     total energy              =  -27817.39788047 Ry
     estimated scf accuracy    <       0.00526502 Ry

     iteration #  8     ecut=    60.00 Ry     beta= 0.70
     Davidson diagonalization with overlap
     ethr =  1.40E-06,  avg # of iterations =  3.8

     negative rho (up, down):  2.243E-03 0.000E+00

     total cpu time spent up to now is     6596.8 secs

     total energy              =  -27817.39829911 Ry
     estimated scf accuracy    <       0.00267787 Ry

     iteration #  9     ecut=    60.00 Ry     beta= 0.70
     Davidson diagonalization with overlap
     ethr =  7.10E-07,  avg # of iterations =  9.0

     negative rho (up, down):  2.677E-03 0.000E+00

     total cpu time spent up to now is     7247.2 secs

     total energy              =  -27817.39854491 Ry
     estimated scf accuracy    <       0.00218503 Ry

     iteration # 10     ecut=    60.00 Ry     beta= 0.70
     Davidson diagonalization with overlap
     c_bands:  1 eigenvalues not converged
     c_bands:  1 eigenvalues not converged
     c_bands:  1 eigenvalues not converged
     ethr =  5.80E-07,  avg # of iterations = 13.8

     negative rho (up, down):  4.539E-03 0.000E+00

     total cpu time spent up to now is     7947.4 secs

     total energy              =  -27817.39858709 Ry
     estimated scf accuracy    <       0.00204478 Ry

     iteration # 11     ecut=    60.00 Ry     beta= 0.70
     Davidson diagonalization with overlap
     c_bands:  1 eigenvalues not converged
     ethr =  5.42E-07,  avg # of iterations =  6.0

     negative rho (up, down):  8.032E-03 0.000E+00

     total cpu time spent up to now is     8556.8 secs

     total energy              =  -27817.39856996 Ry
     estimated scf accuracy    <       0.00137758 Ry

     iteration # 12     ecut=    60.00 Ry     beta= 0.70
     Davidson diagonalization with overlap
     ethr =  3.65E-07,  avg # of iterations =  1.8

     negative rho (up, down):  1.226E-02 0.000E+00

     total cpu time spent up to now is     9122.4 secs

     total energy              =  -27817.39861962 Ry
     estimated scf accuracy    <       0.00079528 Ry

     iteration # 13     ecut=    60.00 Ry     beta= 0.70
     Davidson diagonalization with overlap
     ethr =  2.11E-07,  avg # of iterations =  3.2

     negative rho (up, down):  1.280E-02 0.000E+00

     total cpu time spent up to now is     9697.0 secs

     total energy              =  -27817.39866868 Ry
     estimated scf accuracy    <       0.00017945 Ry

     iteration # 14     ecut=    60.00 Ry     beta= 0.70
     Davidson diagonalization with overlap
     ethr =  4.76E-08,  avg # of iterations =  3.4

     negative rho (up, down):  1.169E-02 0.000E+00

     total cpu time spent up to now is    10333.5 secs

     total energy              =  -27817.39869220 Ry
     estimated scf accuracy    <       0.00004644 Ry

     iteration # 15     ecut=    60.00 Ry     beta= 0.70
     Davidson diagonalization with overlap
     ethr =  1.23E-08,  avg # of iterations =  4.3

     negative rho (up, down):  1.183E-02 0.000E+00

     total cpu time spent up to now is    11053.1 secs

     total energy              =  -27817.39870313 Ry
     estimated scf accuracy    <       0.00001971 Ry

     iteration # 16     ecut=    60.00 Ry     beta= 0.70
     Davidson diagonalization with overlap
     ethr =  5.23E-09,  avg # of iterations =  2.2

     negative rho (up, down):  1.169E-02 0.000E+00

     total cpu time spent up to now is    11648.9 secs

     total energy              =  -27817.39870490 Ry
     estimated scf accuracy    <       0.00000333 Ry

     iteration # 17     ecut=    60.00 Ry     beta= 0.70
     Davidson diagonalization with overlap
     ethr =  8.83E-10,  avg # of iterations =  4.5

     negative rho (up, down):  1.181E-02 0.000E+00

     total cpu time spent up to now is    12561.0 secs

     total energy              =  -27817.39870594 Ry
     estimated scf accuracy    <       0.00000359 Ry

     iteration # 18     ecut=    60.00 Ry     beta= 0.70
     Davidson diagonalization with overlap
     ethr =  8.83E-10,  avg # of iterations =  1.2

     negative rho (up, down):  1.186E-02 0.000E+00

     total cpu time spent up to now is    13098.4 secs

     total energy              =  -27817.39870583 Ry
     estimated scf accuracy    <       0.00000217 Ry

     iteration # 19     ecut=    60.00 Ry     beta= 0.70
     Davidson diagonalization with overlap
     ethr =  5.76E-10,  avg # of iterations =  1.0

     negative rho (up, down):  1.204E-02 0.000E+00

     total cpu time spent up to now is    13637.4 secs

     total energy              =  -27817.39870544 Ry
     estimated scf accuracy    <       0.00000149 Ry

     iteration # 20     ecut=    60.00 Ry     beta= 0.70
     Davidson diagonalization with overlap
     ethr =  3.96E-10,  avg # of iterations =  1.1

     negative rho (up, down):  1.218E-02 0.000E+00

     total cpu time spent up to now is    14149.6 secs

     End of self-consistent calculation

          k = 0.0000 0.0000 0.0000 ( 88025 PWs)   bands (ev):

   -13.7482 -10.7682  -7.6948  -6.5089  -5.5369  -5.2561  -4.4184  -4.2263
    -4.1212  -4.1060  -4.0931  -4.0910  -4.0727  -4.0600  -4.0537  -3.6797
    -3.5640  -3.5520  -3.5353  -3.5294  -3.5206  -3.3834  -3.2141  -3.0915
    -3.0835  -3.0791  -3.0751  -3.0490  -3.0000  -2.8824  -2.8611  -2.8566
    -2.8476  -2.8464  -2.7372  -2.6585  -2.6490  -2.6443  -2.6342  -2.6271
    -2.6247  -2.5976  -2.5898  -2.5743  -2.5711  -2.5601  -2.5271  -2.3893
    -2.0400  -2.0082  -2.0054  -1.9872  -1.9808  -1.9646  -1.9293  -1.9258
    -1.9023  -1.8960  -1.8341  -1.7658  -1.7388  -1.6855  -1.3070  -1.2797
    -1.2042  -1.1936  -1.1892  -1.1619  -1.1415  -1.1129  -1.0313  -1.0223
    -1.0055  -1.0039  -0.9962  -0.9826  -0.9806  -0.9719  -0.9392  -0.9336
    -0.9231  -0.9085  -0.8890  -0.8772  -0.8713  -0.8230  -0.7914  -0.7810
    -0.7677  -0.7249  -0.6250  -0.6014  -0.5952  -0.5646  -0.5601  -0.5435
    -0.5333  -0.5260  -0.5209  -0.4730  -0.4550  -0.4424  -0.4349  -0.3469
    -0.3440  -0.3234  -0.3036  -0.3003  -0.2685  -0.2384  -0.1710  -0.1632
    -0.1600  -0.1436   0.0520   0.1217   0.2592   0.2820   0.3085   0.3170
     0.3457   0.3515   0.3637   0.3935   0.3987   0.4401   0.4574   0.4727
     0.5033   0.5126   0.6147   0.6214   0.6362   0.7051   0.7229   0.7446
     0.7576   0.7678   0.8317   0.8400   0.8421   0.8474   1.0347   1.0566
     1.0741   1.0795   1.0838   1.1036   1.1484   1.1492   1.3206   1.3398
     1.3445   1.3526   1.3711   1.4031   1.4722   1.4841   1.5030   1.5201
     1.5227   1.5319   1.5447   1.5506   1.5561   1.5665   1.5869   1.6042
     1.6226   1.6262   1.6623   1.6724   1.6817   1.6901   1.6964   1.7589
     1.7609   1.7690   1.7790   1.7938   1.8102   1.8401   1.8439   1.9017
     1.9078   1.9088   1.9288   1.9379   1.9452   1.9499   1.9953   2.0240
     2.0253   2.0574   2.0593   2.2191   2.2213   2.3074   2.3311   2.3473
     2.3592   2.3694   2.3791   2.4649   2.5868   3.1122   3.1881   3.2083
     3.2336   3.2552   4.0681   4.2175   5.1801   5.4674   5.5210   5.5413
     5.5605   5.9546   6.1821   6.6993   6.8537   7.1153   7.1409   7.1612
     7.1810   7.1832   7.2176

          k = 0.0000 0.2309 0.0000 ( 87880 PWs)   bands (ev):

   -13.7480 -10.7688  -7.6941  -6.3620  -5.5341  -5.1132  -4.6017  -4.4175
    -4.2205  -4.1967  -4.0764  -3.9571  -3.8912  -3.8587  -3.8441  -3.7164
    -3.6219  -3.6051  -3.4905  -3.4658  -3.4539  -3.3076  -3.2341  -3.1505
    -3.0461  -3.0389  -3.0268  -3.0140  -2.9552  -2.9417  -2.9097  -2.8610
    -2.8453  -2.8263  -2.8132  -2.7458  -2.7415  -2.6926  -2.6487  -2.6320
    -2.6218  -2.5980  -2.4651  -2.4292  -2.4142  -2.3862  -2.3813  -2.3295
    -2.1583  -2.1294  -2.1122  -2.0540  -2.0421  -2.0139  -2.0073  -1.8545
    -1.8369  -1.7996  -1.7468  -1.7356  -1.7149  -1.6875  -1.5001  -1.3963
    -1.3825  -1.3390  -1.3188  -1.2881  -1.2474  -1.2131  -1.1879  -1.1758
    -1.1529  -1.1436  -1.0963  -1.0751  -1.0290  -1.0102  -0.9890  -0.9638
    -0.9134  -0.8957  -0.8646  -0.8236  -0.8107  -0.7896  -0.7605  -0.7275
    -0.7226  -0.6933  -0.6614  -0.6437  -0.6212  -0.6095  -0.5841  -0.5733
    -0.5412  -0.5208  -0.4916  -0.4573  -0.4486  -0.4333  -0.4035  -0.3915
    -0.3735  -0.3473  -0.3358  -0.2874  -0.2365  -0.2129  -0.1832  -0.1724
    -0.1520  -0.1253  -0.0932  -0.0707  -0.0600  -0.0483  -0.0237   0.0046
     0.1155   0.2466   0.2573   0.2871   0.3395   0.3600   0.3813   0.3939
     0.4069   0.4483   0.5331   0.5737   0.5911   0.6898   0.7138   0.7378
     0.7699   0.7831   0.7987   0.8204   0.8416   0.8613   0.9213   0.9508
     0.9669   0.9791   0.9928   1.1186   1.1504   1.1723   1.1906   1.2085
     1.2397   1.2607   1.3178   1.3271   1.3549   1.3657   1.4137   1.4426
     1.4588   1.4794   1.5096   1.5656   1.5790   1.5967   1.6508   1.6814
     1.7103   1.7229   1.7405   1.7638   1.7777   1.8348   1.8659   1.8977
     1.9064   1.9394   1.9548   1.9740   1.9971   2.0040   2.0169   2.0242
     2.0640   2.0733   2.1154   2.1945   2.2214   2.2400   2.2567   2.2715
     2.2818   2.3191   2.3329   2.3581   2.3652   2.4558   2.4646   2.4885
     2.5237   2.6346   2.6537   2.6688   2.8957   2.9535   3.2225   3.5254
     3.7883   3.8769   4.0365   4.5654   4.9369   5.1564   5.3811   5.7707
     5.9848   6.0037   6.1290   6.2013   6.5113   6.7489   6.8880   6.9566
     7.0472   7.0851   7.3272

          k = 0.0000 0.4619 0.0000 ( 87922 PWs)   bands (ev):

   -13.7478 -10.7699  -7.6929  -5.9395  -5.5304  -5.3028  -4.7127  -4.4191
    -4.2558  -4.2305  -4.1560  -3.8632  -3.7310  -3.7013  -3.5842  -3.5587
    -3.5107  -3.4877  -3.3718  -3.3176  -3.2968  -3.2797  -3.2401  -3.1995
    -3.1586  -3.1132  -3.0935  -3.0746  -3.0432  -3.0314  -3.0083  -2.9444
    -2.9311  -2.9171  -2.7034  -2.6857  -2.6664  -2.6619  -2.6453  -2.6268
    -2.5100  -2.4298  -2.4117  -2.3993  -2.3884  -2.3671  -2.3020  -2.1967
    -2.1199  -2.0972  -2.0886  -2.0685  -2.0306  -2.0133  -1.9523  -1.9268
    -1.9167  -1.8882  -1.8692  -1.7362  -1.7252  -1.7067  -1.6890  -1.5871
    -1.5585  -1.5355  -1.5063  -1.4891  -1.3667  -1.3386  -1.3064  -1.2725
    -1.2631  -1.2421  -1.1991  -1.1659  -1.1441  -1.1140  -1.0333  -1.0313
    -0.9913  -0.9450  -0.9097  -0.8950  -0.8869  -0.8551  -0.8398  -0.8088
    -0.7919  -0.7767  -0.7671  -0.7541  -0.7515  -0.7145  -0.6972  -0.6485
    -0.6187  -0.6088  -0.5902  -0.5730  -0.5304  -0.4767  -0.4389  -0.4234
    -0.3846  -0.3706  -0.3408  -0.3329  -0.3099  -0.2623  -0.2240  -0.1730
    -0.1357  -0.1020  -0.0604  -0.0414   0.0310   0.0604   0.0892   0.1213
     0.1828   0.2053   0.2409   0.2533   0.2894   0.3088   0.3251   0.3412
     0.3788   0.3938   0.4092   0.4394   0.4467   0.4704   0.4868   0.5038
     0.5612   0.6358   0.6466   0.6651   0.6995   0.7315   0.8213   0.8387
     0.8746   0.9479   0.9571   1.0573   1.1010   1.1300   1.1492   1.1726
     1.1946   1.2292   1.2419   1.2900   1.3082   1.3488   1.3820   1.3860
     1.4643   1.4898   1.4961   1.5115   1.5254   1.5466   1.6559   1.6937
     1.7316   1.7623   1.7809   1.8069   1.8116   1.8985   1.9221   1.9372
     1.9945   2.0089   2.0554   2.0691   2.0968   2.1120   2.1263   2.2128
     2.2200   2.2418   2.2538   2.2727   2.2981   2.3050   2.4310   2.4726
     2.4782   2.5056   2.5237   2.5393   2.6608   2.7384   2.9094   3.1042
     3.1875   3.4658   3.5499   3.5670   3.7533   3.9283   4.0153   4.2530
     4.3689   4.7001   4.7753   4.7814   4.8915   4.9496   5.0740   5.1854
     5.3870   5.4779   5.5309   5.8856   6.1024   6.2170   6.5449   6.6722
     6.7572   7.0328   7.1966

          k = 0.2000-0.1155 0.0000 ( 87880 PWs)   bands (ev):

   -13.7481 -10.7682  -7.6956  -6.3622  -5.5377  -5.1131  -4.6093  -4.4170
    -4.2013  -4.1995  -4.0839  -3.9578  -3.9026  -3.8473  -3.8453  -3.7617
    -3.6236  -3.5006  -3.4964  -3.4672  -3.4613  -3.3756  -3.2112  -3.1442
    -3.0461  -3.0318  -3.0298  -2.9812  -2.9485  -2.9318  -2.8988  -2.8953
    -2.8570  -2.8389  -2.8087  -2.7433  -2.7395  -2.6931  -2.6569  -2.6478
    -2.6167  -2.6136  -2.4450  -2.4328  -2.4123  -2.3930  -2.3680  -2.3362
    -2.1500  -2.1315  -2.0838  -2.0597  -2.0536  -2.0294  -1.9966  -1.8771
    -1.8286  -1.7940  -1.7460  -1.7351  -1.7216  -1.6832  -1.4596  -1.4489
    -1.3728  -1.3250  -1.3028  -1.2807  -1.2489  -1.2188  -1.1829  -1.1712
    -1.1606  -1.1495  -1.0864  -1.0787  -1.0522  -1.0054  -0.9908  -0.9686
    -0.9021  -0.8973  -0.8759  -0.8259  -0.8164  -0.7710  -0.7546  -0.7289
    -0.7021  -0.6976  -0.6454  -0.6384  -0.6230  -0.6071  -0.6014  -0.5728
    -0.5302  -0.5051  -0.4702  -0.4506  -0.4362  -0.4257  -0.4211  -0.3882
    -0.3772  -0.3425  -0.3372  -0.3217  -0.2651  -0.2162  -0.2041  -0.1638
    -0.1409  -0.1243  -0.1176  -0.0720  -0.0664  -0.0462  -0.0328   0.0491
     0.0864   0.2395   0.2618   0.3001   0.3401   0.3463   0.3722   0.3772
     0.4023   0.4434   0.5415   0.5670   0.5868   0.6744   0.7288   0.7399
     0.7636   0.7773   0.8089   0.8191   0.8609   0.8719   0.9190   0.9512
     0.9552   0.9864   0.9924   1.1275   1.1351   1.1684   1.1852   1.1919
     1.2387   1.2712   1.3124   1.3319   1.3514   1.3721   1.4192   1.4416
     1.4552   1.4892   1.4982   1.5683   1.5883   1.6005   1.6407   1.6799
     1.6891   1.7278   1.7360   1.7600   1.8084   1.8320   1.8787   1.8819
     1.9096   1.9408   1.9537   1.9701   2.0004   2.0064   2.0177   2.0244
     2.0728   2.0772   2.1120   2.1977   2.2210   2.2269   2.2670   2.2782
     2.2953   2.3180   2.3449   2.3474   2.3579   2.4518   2.4609   2.4910
     2.6164   2.6351   2.6521   2.6705   2.7525   2.9426   3.2782   3.4809
     3.8011   3.9125   4.2113   4.3508   4.8591   5.2447   5.5480   5.6266
     5.9883   5.9961   6.1195   6.2624   6.4260   6.7323   6.8769   6.9830
     6.9914   7.0678   7.3495

          k = 0.2000 0.1155 0.0000 ( 87880 PWs)   bands (ev):

   -13.7480 -10.7688  -7.6941  -6.3620  -5.5341  -5.1132  -4.6019  -4.4204
    -4.2209  -4.1942  -4.0761  -3.9570  -3.8945  -3.8579  -3.8418  -3.7184
    -3.6219  -3.6022  -3.4898  -3.4649  -3.4557  -3.3074  -3.2289  -3.1518
    -3.0498  -3.0375  -3.0331  -3.0157  -2.9535  -2.9392  -2.9068  -2.8581
    -2.8494  -2.8295  -2.8129  -2.7476  -2.7413  -2.6925  -2.6501  -2.6296
    -2.6171  -2.6000  -2.4533  -2.4290  -2.4123  -2.3868  -2.3735  -2.3439
    -2.1570  -2.1288  -2.1127  -2.0527  -2.0445  -2.0185  -2.0045  -1.8671
    -1.8346  -1.8006  -1.7448  -1.7314  -1.7164  -1.6862  -1.4964  -1.4043
    -1.3794  -1.3387  -1.3162  -1.2917  -1.2367  -1.2104  -1.1919  -1.1742
    -1.1563  -1.1440  -1.1147  -1.0750  -1.0290  -1.0014  -0.9863  -0.9534
    -0.9183  -0.8956  -0.8682  -0.8200  -0.8086  -0.7881  -0.7592  -0.7281
    -0.7180  -0.6931  -0.6585  -0.6407  -0.6258  -0.6078  -0.5789  -0.5725
    -0.5434  -0.5212  -0.4929  -0.4587  -0.4491  -0.4320  -0.4028  -0.3923
    -0.3696  -0.3459  -0.3358  -0.2888  -0.2409  -0.2183  -0.1834  -0.1708
    -0.1577  -0.1264  -0.0921  -0.0712  -0.0596  -0.0533  -0.0277  -0.0019
     0.0967   0.2535   0.2660   0.2894   0.3385   0.3586   0.3815   0.3918
     0.4105   0.4473   0.5350   0.5716   0.5937   0.6924   0.7149   0.7359
     0.7710   0.7794   0.8002   0.8201   0.8465   0.8679   0.9201   0.9508
     0.9685   0.9785   0.9947   1.1246   1.1460   1.1707   1.1883   1.2109
     1.2405   1.2594   1.3175   1.3269   1.3515   1.3642   1.4083   1.4403
     1.4581   1.4798   1.5090   1.5659   1.5795   1.6029   1.6442   1.6822
     1.7102   1.7242   1.7389   1.7642   1.7750   1.8406   1.8684   1.8978
     1.9080   1.9403   1.9558   1.9724   1.9981   2.0056   2.0164   2.0236
     2.0650   2.0749   2.1157   2.1973   2.2200   2.2397   2.2577   2.2702
     2.2792   2.3195   2.3330   2.3573   2.3658   2.4495   2.4663   2.4873
     2.5262   2.6374   2.6548   2.6682   2.9020   2.9459   3.2176   3.5307
     3.7909   3.8741   4.0416   4.5657   4.9392   5.1577   5.3826   5.7554
     5.9857   6.0023   6.1290   6.1988   6.5056   6.7470   6.8869   6.9559
     7.0657   7.0892   7.3293

          k = 0.2000 0.3464 0.0000 ( 87940 PWs)   bands (ev):

   -13.7478 -10.7699  -7.6927  -6.0763  -5.5300  -4.8652  -4.8501  -4.8250
    -4.4202  -3.9129  -3.7815  -3.7759  -3.7652  -3.7595  -3.7347  -3.6925
    -3.6694  -3.5853  -3.5697  -3.4440  -3.2596  -3.1955  -3.1800  -3.1680
    -3.1559  -3.0949  -3.0603  -2.9744  -2.9614  -2.9421  -2.9357  -2.9205
    -2.8393  -2.8075  -2.7927  -2.7836  -2.7542  -2.7175  -2.6981  -2.6742
    -2.6309  -2.5762  -2.5304  -2.3961  -2.2804  -2.2183  -2.2118  -2.1872
    -2.1666  -2.1438  -2.1226  -2.0913  -2.0717  -2.0464  -1.9258  -1.9105
    -1.8779  -1.8084  -1.7710  -1.7549  -1.7129  -1.6957  -1.6651  -1.6199
    -1.5120  -1.4446  -1.4327  -1.3936  -1.3697  -1.3369  -1.3193  -1.2932
    -1.2656  -1.2282  -1.2122  -1.0937  -1.0801  -1.0615  -1.0343  -1.0161
    -1.0011  -0.9597  -0.9289  -0.9095  -0.8807  -0.8423  -0.7828  -0.7662
    -0.7592  -0.7425  -0.7221  -0.7205  -0.6922  -0.6596  -0.6518  -0.5990
    -0.5762  -0.5494  -0.4995  -0.4877  -0.4751  -0.4396  -0.4158  -0.3999
    -0.3803  -0.3737  -0.3532  -0.3281  -0.3131  -0.2952  -0.2752  -0.2563
    -0.2279  -0.2101  -0.1440  -0.1232  -0.1014  -0.0682  -0.0134   0.0068
     0.0441   0.1463   0.1983   0.2412   0.3235   0.3273   0.3585   0.3728
     0.4000   0.4222   0.4378   0.4591   0.4811   0.5042   0.5343   0.5930
     0.6309   0.6990   0.7579   0.7766   0.7858   0.8250   0.8516   0.9102
     0.9260   0.9714   1.0025   1.0357   1.0589   1.1007   1.1355   1.1994
     1.2172   1.2235   1.2738   1.2919   1.3108   1.3207   1.3400   1.3489
     1.3568   1.4139   1.4221   1.4856   1.5456   1.5788   1.6786   1.6904
     1.7083   1.8170   1.8773   1.8952   1.9138   1.9275   2.0055   2.0211
     2.0397   2.0540   2.0837   2.0958   2.1051   2.1163   2.1318   2.1495
     2.1777   2.2350   2.2525   2.2838   2.3142   2.3220   2.3314   2.3726
     2.4425   2.5286   2.5708   2.5834   2.6235   2.6481   2.6715   2.7620
     2.8198   3.2381   3.3026   3.4132   3.5714   3.7890   3.8614   3.8742
     4.0800   4.4972   4.6166   4.7558   4.8090   4.9179   5.1351   5.5066
     5.6721   5.9636   5.9904   6.2040   6.2746   6.4952   6.5812   6.6998
     6.7803   6.8692   6.9852

          k = 0.2000-0.5774 0.0000 ( 87928 PWs)   bands (ev):

   -13.7478 -10.7699  -7.6933  -5.5605  -5.5378  -5.5150  -4.9353  -4.4281
    -4.3769  -4.3159  -3.8732  -3.7642  -3.6325  -3.6126  -3.5416  -3.4900
    -3.4440  -3.3777  -3.3654  -3.3199  -3.2800  -3.2611  -3.2360  -3.2181
    -3.2091  -3.1870  -3.1465  -3.0578  -3.0437  -3.0266  -2.9981  -2.9590
    -2.9343  -2.8544  -2.8075  -2.7678  -2.6762  -2.6643  -2.6384  -2.6177
    -2.5841  -2.5401  -2.5133  -2.4494  -2.4123  -2.3634  -2.2187  -2.2037
    -2.1823  -2.0880  -2.0726  -2.0282  -1.9988  -1.8879  -1.8718  -1.8405
    -1.8264  -1.7982  -1.7443  -1.7413  -1.6939  -1.6424  -1.6082  -1.5953
    -1.5780  -1.5681  -1.5548  -1.5172  -1.5026  -1.4652  -1.3978  -1.3599
    -1.3155  -1.2947  -1.2452  -1.2089  -1.1635  -1.1397  -1.1017  -1.0885
    -1.0539  -1.0434  -1.0087  -0.9741  -0.9529  -0.9200  -0.8997  -0.8769
    -0.8484  -0.7953  -0.7526  -0.7286  -0.7075  -0.6757  -0.6514  -0.5908
    -0.5432  -0.5254  -0.5106  -0.4994  -0.4734  -0.4584  -0.4338  -0.4077
    -0.4012  -0.3925  -0.3617  -0.3548  -0.3202  -0.2977  -0.2812  -0.2737
    -0.2548  -0.2489  -0.2348  -0.1983  -0.1888  -0.0444   0.0356   0.0906
     0.1161   0.1362   0.2011   0.2249   0.2473   0.2780   0.3006   0.3236
     0.3487   0.3772   0.3859   0.4426   0.4670   0.4791   0.5112   0.5747
     0.5992   0.6307   0.6961   0.7562   0.7885   0.8319   0.8649   0.8879
     0.9076   0.9631   0.9832   1.0105   1.0238   1.0494   1.0821   1.1073
     1.1196   1.1733   1.2085   1.2330   1.2547   1.2673   1.3035   1.3187
     1.3735   1.4105   1.4403   1.5564   1.5770   1.6543   1.7092   1.7314
     1.7429   1.7920   1.8570   1.8854   1.9015   1.9858   2.0191   2.0304
     2.0536   2.0734   2.0958   2.1063   2.1383   2.1779   2.2209   2.2433
     2.2557   2.2773   2.2917   2.2970   2.3698   2.4463   2.4632   2.4973
     2.5187   2.5236   2.5302   2.5823   2.6990   2.7630   2.8853   3.2863
     3.6606   3.6671   3.8709   3.9346   4.0131   4.0359   4.1159   4.3539
     4.5519   4.6808   4.7105   5.0326   5.1699   5.2127   5.2717   5.2948
     5.4518   5.5555   5.6198   5.6994   5.8369   6.0862   6.1947   6.3549
     6.6216   6.7538   6.7830

          k = 0.2000-0.3464 0.0000 ( 87940 PWs)   bands (ev):

   -13.7480 -10.7689  -7.6951  -6.0773  -5.5350  -4.8625  -4.8506  -4.8304
    -4.4168  -3.9265  -3.7838  -3.7810  -3.7671  -3.7591  -3.7064  -3.6970
    -3.6809  -3.5897  -3.5748  -3.3776  -3.2799  -3.2180  -3.1920  -3.1635
    -3.1438  -3.0932  -3.0746  -2.9696  -2.9601  -2.9436  -2.9301  -2.8900
    -2.8223  -2.8011  -2.7884  -2.7831  -2.7656  -2.7181  -2.6921  -2.6794
    -2.6440  -2.6241  -2.5238  -2.4230  -2.2884  -2.2254  -2.1995  -2.1760
    -2.1553  -2.1369  -2.1157  -2.0991  -2.0588  -2.0412  -1.9171  -1.9096
    -1.9037  -1.8020  -1.7695  -1.7372  -1.7099  -1.7020  -1.6554  -1.6254
    -1.4746  -1.4682  -1.4235  -1.4097  -1.3752  -1.3414  -1.3157  -1.2823
    -1.2581  -1.2283  -1.1873  -1.1064  -1.0908  -1.0707  -1.0289  -1.0121
    -0.9838  -0.9625  -0.9442  -0.9130  -0.8964  -0.8208  -0.7882  -0.7695
    -0.7571  -0.7425  -0.7174  -0.7117  -0.6692  -0.6593  -0.6298  -0.6156
    -0.5792  -0.5522  -0.5106  -0.4897  -0.4819  -0.4419  -0.4239  -0.4039
    -0.3836  -0.3749  -0.3470  -0.3284  -0.3150  -0.3016  -0.2852  -0.2443
    -0.2311  -0.2109  -0.1404  -0.1278  -0.0888  -0.0665  -0.0102  -0.0006
     0.0605   0.0949   0.2159   0.2291   0.3041   0.3356   0.3521   0.3710
     0.4004   0.4258   0.4426   0.4580   0.4779   0.5103   0.5439   0.5662
     0.6027   0.7016   0.7643   0.7864   0.8122   0.8326   0.8661   0.8851
     0.9111   0.9810   1.0132   1.0290   1.0598   1.0898   1.1276   1.1803
     1.2194   1.2380   1.2601   1.2947   1.3133   1.3254   1.3384   1.3608
     1.3703   1.3895   1.4232   1.4990   1.5566   1.5704   1.6420   1.6931
     1.7539   1.7932   1.8807   1.8878   1.9085   1.9521   1.9986   2.0220
     2.0439   2.0586   2.0757   2.0993   2.1052   2.1159   2.1352   2.1468
     2.1694   2.2287   2.2664   2.2803   2.2996   2.3252   2.3379   2.3765
     2.4706   2.5220   2.5586   2.5838   2.6191   2.6440   2.7116   2.7756
     2.8152   3.2268   3.2981   3.3513   3.4928   3.8213   3.8592   3.9543
     4.1566   4.4524   4.6240   4.7160   4.7876   4.9198   5.1481   5.4850
     5.6951   5.9742   6.0565   6.2042   6.2450   6.4818   6.5583   6.6648
     6.7629   6.7974   6.9694

          k = 0.4000-0.2309 0.0000 ( 87922 PWs)   bands (ev):

   -13.7480 -10.7683  -7.6969  -5.9412  -5.5394  -5.3042  -4.7155  -4.4164
    -4.2364  -4.2350  -4.1782  -3.8841  -3.7267  -3.6978  -3.5759  -3.5213
    -3.5054  -3.4468  -3.3823  -3.3602  -3.3219  -3.2735  -3.2446  -3.1920
    -3.1608  -3.1201  -3.1066  -3.0665  -3.0421  -3.0354  -2.9750  -2.9369
    -2.9246  -2.8845  -2.7142  -2.6939  -2.6734  -2.6686  -2.6431  -2.6362
    -2.5185  -2.4492  -2.4066  -2.4007  -2.3767  -2.3650  -2.3068  -2.1719
    -2.1253  -2.0972  -2.0749  -2.0722  -2.0284  -2.0257  -1.9556  -1.9394
    -1.9075  -1.8886  -1.8788  -1.7359  -1.7129  -1.7100  -1.6901  -1.5715
    -1.5386  -1.5116  -1.5079  -1.4695  -1.3728  -1.3460  -1.3198  -1.2748
    -1.2554  -1.2448  -1.2024  -1.1625  -1.1471  -1.0790  -1.0588  -1.0374
    -0.9743  -0.9396  -0.9187  -0.9108  -0.8841  -0.8583  -0.8269  -0.8006
    -0.7862  -0.7801  -0.7756  -0.7631  -0.7316  -0.7171  -0.7106  -0.6342
    -0.6155  -0.5993  -0.5888  -0.5790  -0.5365  -0.5180  -0.4294  -0.4270
    -0.3793  -0.3626  -0.3475  -0.3181  -0.3120  -0.2761  -0.1787  -0.1342
    -0.1309  -0.1260  -0.0882  -0.0640  -0.0374   0.0755   0.0807   0.1221
     0.1824   0.2193   0.2472   0.2708   0.2729   0.3176   0.3223   0.3589
     0.3720   0.3837   0.4074   0.4231   0.4251   0.4579   0.4783   0.5030
     0.5922   0.6132   0.6458   0.6637   0.6879   0.7318   0.8346   0.8431
     0.8625   0.9276   0.9560   1.0548   1.1077   1.1212   1.1341   1.1901
     1.2141   1.2199   1.2352   1.2939   1.3193   1.3413   1.3690   1.3845
     1.4735   1.4763   1.4994   1.5092   1.5319   1.5641   1.6325   1.6825
     1.7450   1.7643   1.7883   1.8114   1.8201   1.9042   1.9075   1.9347
     1.9872   2.0052   2.0468   2.0708   2.1026   2.1124   2.1387   2.1947
     2.2334   2.2505   2.2555   2.2641   2.3063   2.3132   2.4593   2.4759
     2.4796   2.5025   2.5186   2.5456   2.6588   2.7379   2.8457   3.1477
     3.1828   3.5211   3.5383   3.5963   3.7711   3.9278   4.0192   4.1892
     4.2885   4.6572   4.7705   4.7839   4.9078   5.0352   5.0720   5.2482
     5.3920   5.4600   5.6771   5.6849   6.0724   6.1884   6.5328   6.6624
     6.6954   6.9990   7.1798

          k = 0.4000-0.0000 0.0000 ( 87940 PWs)   bands (ev):

   -13.7480 -10.7689  -7.6952  -6.0772  -5.5351  -4.8642  -4.8487  -4.8313
    -4.4189  -3.9272  -3.7843  -3.7806  -3.7695  -3.7563  -3.7076  -3.6961
    -3.6790  -3.5899  -3.5728  -3.3721  -3.2879  -3.2153  -3.1895  -3.1663
    -3.1433  -3.0970  -3.0651  -2.9752  -2.9608  -2.9432  -2.9263  -2.8939
    -2.8258  -2.8036  -2.7905  -2.7824  -2.7656  -2.7158  -2.6916  -2.6803
    -2.6472  -2.6227  -2.5263  -2.3928  -2.2891  -2.2247  -2.2004  -2.1663
    -2.1520  -2.1400  -2.1310  -2.1011  -2.0596  -2.0451  -1.9264  -1.9122
    -1.9058  -1.8001  -1.7679  -1.7360  -1.7080  -1.7015  -1.6515  -1.6227
    -1.4981  -1.4696  -1.4198  -1.4080  -1.3664  -1.3357  -1.3156  -1.2813
    -1.2606  -1.2284  -1.1888  -1.1084  -1.0938  -1.0701  -1.0284  -1.0087
    -0.9821  -0.9614  -0.9321  -0.9113  -0.8970  -0.8194  -0.7868  -0.7609
    -0.7555  -0.7414  -0.7174  -0.7135  -0.6684  -0.6589  -0.6322  -0.6205
    -0.5774  -0.5576  -0.5103  -0.4908  -0.4846  -0.4392  -0.4227  -0.4075
    -0.3848  -0.3777  -0.3553  -0.3318  -0.3145  -0.3005  -0.2845  -0.2442
    -0.2318  -0.2115  -0.1484  -0.1296  -0.0888  -0.0798  -0.0083  -0.0005
     0.0607   0.1005   0.2152   0.2338   0.3097   0.3273   0.3536   0.3746
     0.4000   0.4247   0.4399   0.4556   0.4805   0.5162   0.5370   0.5760
     0.6041   0.7019   0.7644   0.7869   0.8064   0.8312   0.8654   0.8932
     0.9101   0.9850   1.0125   1.0340   1.0603   1.0885   1.1234   1.1895
     1.2111   1.2353   1.2593   1.2928   1.3129   1.3271   1.3374   1.3602
     1.3719   1.3911   1.4246   1.5001   1.5482   1.5716   1.6384   1.6976
     1.7573   1.7925   1.8814   1.8841   1.9086   1.9531   1.9993   2.0205
     2.0451   2.0589   2.0778   2.0991   2.1052   2.1148   2.1347   2.1480
     2.1691   2.2281   2.2660   2.2816   2.2945   2.3264   2.3402   2.3773
     2.4636   2.5223   2.5591   2.5838   2.6156   2.6426   2.7123   2.7779
     2.8151   3.2429   3.3012   3.3557   3.4766   3.8324   3.8560   3.9477
     4.1685   4.4548   4.6413   4.7095   4.7877   4.9399   5.1216   5.4700
     5.6759   5.9783   6.0500   6.1982   6.2559   6.4729   6.5599   6.6657
     6.7599   6.8160   6.9537

          k = 0.4000 0.2309 0.0000 ( 87922 PWs)   bands (ev):

   -13.7478 -10.7699  -7.6930  -5.9393  -5.5302  -5.3036  -4.7131  -4.4236
    -4.2563  -4.2282  -4.1565  -3.8663  -3.7330  -3.7006  -3.5821  -3.5520
    -3.5082  -3.4854  -3.3696  -3.3185  -3.2919  -3.2817  -3.2345  -3.2104
    -3.1540  -3.1130  -3.0925  -3.0785  -3.0472  -3.0381  -3.0082  -2.9477
    -2.9316  -2.9178  -2.6998  -2.6817  -2.6665  -2.6631  -2.6409  -2.6246
    -2.5004  -2.4297  -2.4109  -2.4042  -2.3857  -2.3667  -2.2940  -2.1955
    -2.1197  -2.1025  -2.0912  -2.0684  -2.0346  -2.0150  -1.9541  -1.9308
    -1.9178  -1.8904  -1.8698  -1.7352  -1.7260  -1.7084  -1.6870  -1.5829
    -1.5527  -1.5325  -1.5076  -1.4882  -1.3951  -1.3428  -1.2990  -1.2730
    -1.2672  -1.2342  -1.1987  -1.1683  -1.1410  -1.1080  -1.0336  -1.0298
    -0.9819  -0.9445  -0.9111  -0.8942  -0.8838  -0.8535  -0.8358  -0.8059
    -0.7960  -0.7751  -0.7630  -0.7539  -0.7520  -0.7131  -0.6893  -0.6488
    -0.6166  -0.6103  -0.5899  -0.5705  -0.5358  -0.4803  -0.4401  -0.4219
    -0.3981  -0.3686  -0.3430  -0.3329  -0.3109  -0.2629  -0.2298  -0.1725
    -0.1361  -0.1062  -0.0602  -0.0416   0.0206   0.0595   0.0808   0.1240
     0.1838   0.2076   0.2423   0.2547   0.2975   0.3068   0.3232   0.3334
     0.3765   0.3924   0.4092   0.4364   0.4460   0.4760   0.4882   0.4996
     0.5655   0.6364   0.6421   0.6702   0.7071   0.7281   0.8305   0.8421
     0.8749   0.9502   0.9575   1.0595   1.0985   1.1269   1.1439   1.1686
     1.1972   1.2270   1.2421   1.2901   1.3057   1.3466   1.3788   1.3875
     1.4644   1.4902   1.4935   1.5114   1.5289   1.5512   1.6512   1.6922
     1.7282   1.7632   1.7761   1.8084   1.8145   1.8976   1.9224   1.9387
     1.9964   2.0096   2.0570   2.0689   2.0994   2.1102   2.1241   2.2134
     2.2204   2.2425   2.2535   2.2738   2.2981   2.3051   2.4304   2.4720
     2.4789   2.5038   2.5247   2.5434   2.6615   2.7384   2.9121   3.1099
     3.1921   3.4580   3.5460   3.5667   3.7659   3.9305   4.0121   4.2600
     4.3697   4.7185   4.7757   4.7893   4.8869   4.9365   5.0738   5.1779
     5.3860   5.4770   5.5270   5.8763   6.1024   6.2033   6.5391   6.6665
     6.7706   7.0233   7.2062

          k = 0.4000-0.6928 0.0000 ( 87928 PWs)   bands (ev):

   -13.7478 -10.7699  -7.6934  -5.5558  -5.5391  -5.5189  -4.9352  -4.4281
    -4.3805  -4.3155  -3.8713  -3.7670  -3.6332  -3.6117  -3.5414  -3.4880
    -3.4420  -3.3798  -3.3642  -3.3094  -3.2781  -3.2594  -3.2372  -3.2203
    -3.1999  -3.1953  -3.1578  -3.0557  -3.0450  -3.0247  -2.9990  -2.9612
    -2.9387  -2.8605  -2.8025  -2.7653  -2.6727  -2.6638  -2.6402  -2.6174
    -2.5849  -2.5322  -2.5140  -2.4405  -2.4145  -2.3638  -2.2172  -2.2050
    -2.1819  -2.0980  -2.0708  -2.0274  -2.0000  -1.8885  -1.8729  -1.8436
    -1.8273  -1.7983  -1.7441  -1.7381  -1.6957  -1.6352  -1.6047  -1.5938
    -1.5790  -1.5716  -1.5560  -1.5160  -1.5014  -1.4651  -1.4224  -1.3587
    -1.3090  -1.2992  -1.2300  -1.2095  -1.1630  -1.1392  -1.1086  -1.0845
    -1.0452  -1.0395  -1.0123  -0.9752  -0.9501  -0.9210  -0.8998  -0.8767
    -0.8493  -0.7930  -0.7537  -0.7318  -0.7077  -0.6757  -0.6513  -0.5913
    -0.5428  -0.5257  -0.5093  -0.4971  -0.4741  -0.4579  -0.4366  -0.4071
    -0.4002  -0.3911  -0.3632  -0.3506  -0.3229  -0.3010  -0.2810  -0.2730
    -0.2548  -0.2468  -0.2367  -0.2013  -0.1864  -0.0677   0.0311   0.1000
     0.1168   0.1386   0.2026   0.2221   0.2561   0.2777   0.2968   0.3230
     0.3489   0.3746   0.3944   0.4401   0.4657   0.4780   0.5132   0.5761
     0.5984   0.6274   0.6932   0.7634   0.7898   0.8328   0.8596   0.8869
     0.9110   0.9650   0.9827   1.0085   1.0237   1.0467   1.0796   1.1082
     1.1203   1.1719   1.2056   1.2365   1.2528   1.2663   1.3056   1.3169
     1.3727   1.4099   1.4459   1.5522   1.5780   1.6566   1.7086   1.7324
     1.7420   1.7979   1.8559   1.8818   1.9055   1.9877   2.0200   2.0304
     2.0536   2.0717   2.0947   2.1054   2.1380   2.1741   2.2231   2.2434
     2.2560   2.2768   2.2914   2.2982   2.3696   2.4456   2.4647   2.4959
     2.5178   2.5260   2.5306   2.5819   2.6962   2.7552   2.8873   3.2902
     3.6630   3.6679   3.8684   3.9541   4.0227   4.0397   4.1282   4.3268
     4.5440   4.6823   4.7236   5.0320   5.1582   5.2124   5.2701   5.2890
     5.4695   5.5604   5.6177   5.6826   5.8291   6.0811   6.1976   6.3571
     6.6177   6.7545   6.7850

          k = 0.4000-0.4619 0.0000 ( 87928 PWs)   bands (ev):

   -13.7479 -10.7689  -7.6958  -5.5796  -5.5297  -5.5113  -4.9326  -4.4216
    -4.3954  -4.3182  -3.8419  -3.7806  -3.6393  -3.5997  -3.5314  -3.4914
    -3.4706  -3.3979  -3.3582  -3.3071  -3.2778  -3.2481  -3.2394  -3.2282
    -3.2062  -3.1798  -3.1172  -3.0815  -3.0403  -3.0192  -3.0000  -2.9860
    -2.9015  -2.8315  -2.8118  -2.7755  -2.6720  -2.6568  -2.6488  -2.6238
    -2.6049  -2.5387  -2.5237  -2.4342  -2.4057  -2.3696  -2.2329  -2.2025
    -2.1537  -2.1079  -2.0734  -2.0218  -2.0071  -1.9088  -1.8744  -1.8346
    -1.8254  -1.7962  -1.7434  -1.7205  -1.6967  -1.6338  -1.5996  -1.5895
    -1.5839  -1.5558  -1.5405  -1.5300  -1.5173  -1.4400  -1.3886  -1.3716
    -1.3123  -1.3043  -1.2305  -1.1933  -1.1623  -1.1363  -1.1010  -1.0865
    -1.0723  -1.0337  -0.9950  -0.9802  -0.9618  -0.9340  -0.8905  -0.8805
    -0.8491  -0.7915  -0.7578  -0.7309  -0.7073  -0.7003  -0.6568  -0.5942
    -0.5617  -0.5367  -0.5090  -0.4996  -0.4615  -0.4513  -0.4278  -0.4109
    -0.4032  -0.3905  -0.3664  -0.3392  -0.3173  -0.3042  -0.2845  -0.2715
    -0.2586  -0.2395  -0.2177  -0.2004  -0.1476  -0.0820   0.0239   0.0695
     0.1021   0.1284   0.2048   0.2293   0.2640   0.2701   0.2915   0.3172
     0.3557   0.3765   0.4088   0.4435   0.4618   0.4954   0.5100   0.5338
     0.6046   0.6239   0.6841   0.7844   0.7969   0.8264   0.8591   0.8698
     0.9250   0.9590   0.9727   1.0124   1.0260   1.0351   1.0679   1.1004
     1.1155   1.1920   1.2089   1.2305   1.2541   1.2669   1.2937   1.3112
     1.3999   1.4066   1.4491   1.5377   1.5949   1.6332   1.7155   1.7414
     1.7582   1.7935   1.8519   1.8599   1.9289   1.9573   2.0156   2.0338
     2.0587   2.0797   2.0906   2.1121   2.1540   2.2075   2.2284   2.2332
     2.2629   2.2715   2.2834   2.2920   2.3716   2.4375   2.4723   2.4921
     2.5084   2.5246   2.5386   2.5840   2.6956   2.7195   2.8880   3.3935
     3.6624   3.6655   3.7618   3.9104   4.0330   4.0537   4.1148   4.3488
     4.6048   4.6963   4.7388   4.9906   5.1343   5.2124   5.2701   5.3348
     5.4049   5.5037   5.5730   5.7764   5.9750   6.0924   6.1222   6.3171
     6.5549   6.6998   6.7731

     the Fermi energy is     2.2930 ev

!    total energy              =  -27817.39870468 Ry

     total all-electron energy =  -1326877.456395 Ry
     estimated scf accuracy    <       0.00000068 Ry
     smearing contrib. (-TS)   =       0.00159429 Ry
     internal energy E=F+TS    =  -27817.40029897 Ry

     The total energy is F=E-TS. E is the sum of the following terms:
     one-electron contribution =  -26369.54146367 Ry
     hartree contribution      =   13494.59926488 Ry
     xc contribution           =    -908.28440315 Ry
     ewald contribution        =   11459.44160978 Ry
     one-center paw contrib.   =  -25493.61530681 Ry

     convergence has been achieved in  20 iterations

     negative rho (up, down):  1.218E-02 0.000E+00

     Forces acting on atoms (cartesian axes, Ry/au):

     atom    1 type  1   force =     0.00055462    0.00087072   -0.00782172
     atom    2 type  1   force =    -0.00121821    0.00073607   -0.00275370
     atom    3 type  1   force =     0.00084177    0.00021181   -0.00297115
     atom    4 type  1   force =    -0.00023344   -0.00091323   -0.00724524
     atom    5 type  1   force =    -0.00040689   -0.00001533   -0.00342568
     atom    6 type  1   force =     0.00078502   -0.00060452   -0.00340453
     atom    7 type  1   force =     0.00035646   -0.00013906   -0.00306684
     atom    8 type  1   force =    -0.00025817    0.00047901   -0.00340901
     atom    9 type  1   force =     0.00027066   -0.00063414   -0.00299934
     atom   10 type  1   force =     0.00100618   -0.00015749   -0.00005657
     atom   11 type  1   force =    -0.00023686    0.00223577    0.00760312
     atom   12 type  1   force =    -0.00049319    0.00010866    0.00019862
     atom   13 type  1   force =     0.00153621   -0.00119323    0.00462549
     atom   14 type  1   force =    -0.00177445    0.00080716    0.01227732
     atom   15 type  1   force =    -0.00019266    0.00025550   -0.00075250
     atom   16 type  1   force =     0.00176835   -0.00027470    0.00460829
     atom   17 type  1   force =    -0.00180167   -0.00067991    0.00724166
     atom   18 type  1   force =    -0.00046798    0.00026085   -0.00038431
     atom   19 type  1   force =    -0.00010074    0.00006698    0.00011178
     atom   20 type  1   force =     0.00012217    0.00014516    0.00029175
     atom   21 type  1   force =    -0.00021825    0.00009374    0.00025235
     atom   22 type  1   force =    -0.00002952    0.00009224    0.00017346
     atom   23 type  1   force =    -0.00001946    0.00001671    0.00011308
     atom   24 type  1   force =    -0.00015591    0.00014501    0.00028394
     atom   25 type  1   force =    -0.00008757    0.00002793    0.00014613
     atom   26 type  1   force =    -0.00007239   -0.00006259    0.00028919
     atom   27 type  1   force =    -0.00001650    0.00006237    0.00007603
     atom   28 type  1   force =     0.00005703   -0.00003190    0.00017514
     atom   29 type  1   force =    -0.00012733    0.00010072    0.00007913
     atom   30 type  1   force =    -0.00001513    0.00018630    0.00007984
     atom   31 type  1   force =     0.00010265   -0.00001099    0.00020657
     atom   32 type  1   force =    -0.00012836   -0.00003901   -0.00009735
     atom   33 type  1   force =    -0.00018443    0.00009342   -0.00010021
     atom   34 type  1   force =    -0.00006362    0.00001212   -0.00018339
     atom   35 type  1   force =    -0.00013035    0.00014351   -0.00006307
     atom   36 type  1   force =    -0.00013552   -0.00003876    0.00015659
     atom   37 type  2   force =     0.00079944   -0.00095746    0.00114399
     atom   38 type  2   force =    -0.00056968   -0.00168789   -0.00115652
     atom   39 type  2   force =     0.00083247   -0.00014656   -0.00005732
     atom   40 type  3   force =     0.00050369   -0.00009313   -0.00013278
     atom   41 type  3   force =    -0.00035745    0.00025971   -0.00008862
     atom   42 type  3   force =    -0.00004884    0.00007125   -0.00010654
     atom   43 type  3   force =     0.00018041   -0.00000827    0.00003576
     atom   44 type  3   force =    -0.00017256    0.00020545    0.00010718

     Total force =     0.003108     Total SCF correction =     0.001954
     SCF correction compared to forces is large: reduce conv_thr to get better values

     negative rho (up, down):  1.218E-02 0.000E+00

     negative rho (up, down):  1.218E-02 0.000E+00

     negative rho (up, down):  1.218E-02 0.000E+00

     negative rho (up, down):  1.218E-02 0.000E+00

     negative rho (up, down):  1.218E-02 0.000E+00

     negative rho (up, down):  1.218E-02 0.000E+00

     negative rho (up, down):  1.218E-02 0.000E+00

     negative rho (up, down):  1.218E-02 0.000E+00

     negative rho (up, down):  1.218E-02 0.000E+00

     negative rho (up, down):  1.218E-02 0.000E+00

     negative rho (up, down):  1.218E-02 0.000E+00

     negative rho (up, down):  1.218E-02 0.000E+00

     negative rho (up, down):  1.218E-02 0.000E+00

     negative rho (up, down):  1.218E-02 0.000E+00

     negative rho (up, down):  1.218E-02 0.000E+00

     negative rho (up, down):  1.218E-02 0.000E+00

     negative rho (up, down):  1.218E-02 0.000E+00

     negative rho (up, down):  1.218E-02 0.000E+00

     negative rho (up, down):  1.218E-02 0.000E+00

     negative rho (up, down):  1.218E-02 0.000E+00

     negative rho (up, down):  1.218E-02 0.000E+00

     negative rho (up, down):  1.218E-02 0.000E+00

     negative rho (up, down):  1.218E-02 0.000E+00

     negative rho (up, down):  1.218E-02 0.000E+00

     negative rho (up, down):  1.218E-02 0.000E+00

     negative rho (up, down):  1.218E-02 0.000E+00

     negative rho (up, down):  1.218E-02 0.000E+00

     negative rho (up, down):  1.218E-02 0.000E+00

     negative rho (up, down):  1.218E-02 0.000E+00

     negative rho (up, down):  1.218E-02 0.000E+00

     negative rho (up, down):  1.218E-02 0.000E+00

     negative rho (up, down):  1.218E-02 0.000E+00

     negative rho (up, down):  1.218E-02 0.000E+00

     negative rho (up, down):  1.218E-02 0.000E+00
 BEEFens 2000 ensemble energies
             -0.608347016121278E+02
             -0.362025228199045E+01
             -0.158628052684547E+02
              0.430307431247057E+02
             -0.221585205494451E+02
             -0.205578224272589E+02
             -0.353336533298973E+02
             -0.867099322911279E+02
             -0.465539186217449E+02
             -0.473008988349271E+02
             -0.370162087791954E+02
              0.230989152165739E+01
              0.409779031183984E+01
              0.759174018637179E+01
              0.266255168897570E+01
              0.475904584377057E+02
             -0.209015847846295E+02
             -0.230103462891152E+02
              0.193691148026930E+02
             -0.112614409562653E+03
              0.537493658025401E+02
             -0.290038896137529E+02
             -0.334941810600318E+01
             -0.114116648304928E+02
             -0.881195445666572E+01
             -0.461532514745326E+01
              0.884483347993352E+02
             -0.187892857166887E+02
             -0.900875545357621E+01
             -0.519737831822893E+02
              0.816495960468892E+02
             -0.187065592349188E+02
             -0.375751526107954E+02
              0.249414714246882E+02
             -0.284206574656622E+01
              0.165034491947664E+02
             -0.482896176383088E+01
              0.107890127845769E+02
              0.289696962419682E+02
             -0.103446016179857E+03
              0.559537212080619E+02
              0.142735314059403E+02
             -0.176400844807142E+01
             -0.362044794693300E+02
              0.123440787445326E+02
             -0.147307211746289E+02
              0.399514822320843E+02
              0.365418972793020E+02
             -0.308152871897422E+02
             -0.275775108922809E+02
             -0.329239966484696E+02
             -0.353015696509545E+02
              0.137242966447554E+02
             -0.491905878218273E+02
              0.115993396771393E+02
              0.624545549741474E+02
              0.637179258039918E+02
              0.356463792083914E+02
              0.154220562929906E+02
              0.271442723184579E+02
              0.893317219876246E+02
              0.212603878256463E+02
             -0.549598646515303E+02
             -0.157160171248064E+02
             -0.236653019535371E+02
              0.631108660144906E+02
             -0.774600111957575E+02
             -0.673078752279851E+02
             -0.260493416136061E+02
             -0.656219484344672E+01
             -0.471329091711128E+02
              0.271241042204625E+02
              0.803327345059779E+01
              0.870763821840239E+01
             -0.398119401432839E+02
             -0.347606672412566E+02
             -0.543233571810345E+02
              0.390668327467255E+02
             -0.296771740398641E+02
              0.266173014173608E+02
             -0.719137270993049E+01
             -0.318486401837838E+02
             -0.576863785504470E+02
             -0.176889963370880E+02
             -0.909134958510458E+01
             -0.124717479362807E+02
              0.413033395647907E+02
              0.684834966102980E+02
             -0.386622728646867E+02
             -0.796184844871509E+02
             -0.220010775603582E+02
              0.111709328201151E+03
             -0.593738242086093E+02
              0.356752047019844E+02
             -0.961174563566533E+01
             -0.664230936887958E+02
              0.254936757326142E+02
              0.398297672386517E+02
             -0.199298758445815E+02
              0.400830807858327E+02
             -0.296396395673505E+02
             -0.479828844005764E+02
              0.868219784862771E+02
              0.454795035379176E+02
              0.336625419103502E+02
              0.146736840690156E+02
              0.206349456004906E+02
              0.858203144335034E+02
             -0.257212109953760E+02
              0.788884854965420E+01
             -0.142673148452546E+03
              0.181157866040189E+02
             -0.717534465812715E+02
              0.151264197403130E+02
              0.205055636749385E+02
             -0.333876767523204E+02
             -0.558092511836210E+02
              0.652878865876426E+01
             -0.304982486649795E+02
              0.308926252013592E+02
             -0.530841293302845E+02
              0.168821335003145E+01
             -0.357748553684692E+02
             -0.424986041332340E+01
             -0.983224950823342E+00
              0.182171706451853E+02
              0.141987909154420E+01
             -0.651685281671621E+01
              0.592049614203646E+02
              0.910214421568292E+02
              0.485277037070069E+02
              0.831214826101225E+02
             -0.115300712070079E+02
              0.143155225324341E+02
              0.541997464546165E+02
             -0.110269390711276E+02
             -0.737339626382553E+02
             -0.385373156460348E+02
             -0.522851754901669E+02
             -0.277279041352998E+02
              0.327919727001589E+02
             -0.117037605938434E+03
             -0.187341079157773E+02
              0.415164531174423E+02
             -0.387093594784985E+02
             -0.365712468791137E+02
              0.545787990599400E+02
              0.401530591707665E+02
             -0.354477311633134E+02
              0.138796081249595E+02
             -0.273905096365262E+02
              0.343916811763297E+02
              0.445576156040227E+01
              0.211201630992975E+02
             -0.886277934405330E+02
             -0.481056000385543E+02
             -0.998147360881148E+01
              0.321182152172795E+01
             -0.367686539656064E+02
              0.106265236813321E+03
             -0.230915939709326E+02
             -0.399300492549013E+02
              0.389458592314099E+02
             -0.494955649844306E+02
             -0.364428977541625E+02
              0.325772375619458E+02
              0.124961628780949E+02
              0.165098078875479E+02
              0.117196597178709E+02
             -0.133111073087223E+02
              0.225154927000650E+02
              0.591163428089639E+02
             -0.311988173584433E+02
              0.162968823921239E+02
              0.936272313156644E+02
              0.341458800344848E+02
             -0.728203858640723E+01
             -0.189260069831224E+02
              0.153669999285294E+03
             -0.164807263903431E+02
              0.364264535194658E+02
              0.195261425769099E+02
              0.361815197475158E+02
              0.893786037045483E+02
              0.543901071314598E+02
             -0.240664163936575E+01
              0.228511637537875E+02
              0.486134432121393E+02
              0.364194600821668E+02
             -0.526792146286001E+02
              0.937966324885584E+02
             -0.827285747654925E+02
             -0.198033790178471E+02
              0.583849676767067E+02
              0.685054508495050E+01
              0.791880462254380E+01
              0.341125306827382E+02
              0.299462282161535E+02
              0.354176602244236E+02
             -0.638798576010013E+02
              0.285938702301689E+01
             -0.298063377908873E+02
             -0.869149273969444E+01
             -0.147501255862858E+01
             -0.727204725434650E+01
             -0.416463465508724E+01
              0.861042313800709E+02
             -0.101182067018147E+02
             -0.276861344659421E+02
             -0.496654705684670E+01
              0.140424156149594E+02
             -0.565350067884812E+02
             -0.408884793476240E+02
             -0.382753210484341E+02
             -0.631591053615024E+02
             -0.170187675759270E+02
             -0.448319442605456E+02
              0.163489057916982E+02
             -0.236861833021989E+01
             -0.104715888714914E+02
             -0.935144547711673E+01
              0.807891253256241E+01
             -0.242546799713692E+02
              0.690831373806837E+02
             -0.809135101945576E+02
             -0.141347186692747E+02
             -0.174188414952860E+02
              0.182195733010452E+02
              0.215442139150356E+02
             -0.464954355567431E+02
             -0.201920942755609E+02
              0.441907004308231E+02
             -0.276511363145793E+02
              0.187494707174781E+02
              0.383334128119915E+02
             -0.322210116012513E+01
              0.114365327387740E+03
             -0.229869595841305E+02
             -0.341510518820853E+02
              0.576658455370819E+01
             -0.228926693949263E+02
              0.528876894002001E+02
             -0.338567024458479E+02
              0.106987039732007E+02
              0.641155880548459E+02
             -0.126400724302046E+02
              0.120475153173478E+03
              0.126121477919775E+03
             -0.651213525808498E+02
              0.591795501434474E+02
              0.167327750772055E+02
             -0.518990652243297E+02
              0.216336100000700E+02
              0.355123473218144E+02
              0.363923065092427E+02
              0.134775402169709E+01
              0.160461703818888E+02
              0.697538721538444E+02
             -0.247519523294777E+02
              0.181547510336215E+02
              0.739991152363740E+02
             -0.373201198175046E+02
             -0.130591284771108E+02
              0.510017972065661E+02
              0.298219910332088E+02
              0.781696854060194E+02
              0.223648402956216E+02
              0.630498422078614E+01
              0.280941840167775E+02
              0.384261628707731E+02
             -0.473365399158375E+02
              0.336428665141278E+01
              0.130807698355124E+02
              0.114130971835738E+02
              0.221189501408017E+02
             -0.576244504202546E+02
              0.366600034481178E+02
             -0.444711691959903E+02
             -0.348190495190571E+02
              0.178731877159518E+02
             -0.181433579577463E+02
              0.556596408996038E+02
             -0.255730158995597E+02
              0.267387917424454E+02
              0.368894999475459E+02
              0.830727783580134E+02
              0.575687268730437E+02
              0.462829666261305E+02
             -0.104975837960326E+02
             -0.395434860883171E+01
             -0.332693932325643E+02
              0.752548626580332E+02
              0.798919647699130E+02
              0.362813539768906E+02
             -0.192691061251585E+02
              0.512787987310921E+02
             -0.162525478000550E+02
              0.214707561957619E+02
              0.616111834075900E+02
              0.213771635025199E+01
             -0.104673834054148E+02
             -0.283087517891593E+02
             -0.513359635252791E+02
              0.947287850309825E+02
              0.441270944107551E+02
             -0.560692549027195E+02
             -0.968355953332181E+01
              0.250150696607436E+02
             -0.996114468466843E+01
              0.593597654561447E+02
              0.152433846717794E+02
              0.800985642063256E+02
              0.280404255491890E+02
             -0.264007088641798E+02
              0.248991461490099E+02
             -0.503529150859373E+01
             -0.323871141878989E+02
              0.133301345272558E+02
              0.205697845480713E+02
              0.935042034891550E+02
              0.798920015398089E+02
              0.552444791480627E+02
              0.731845406141415E+02
              0.802261075763403E+01
             -0.274094844116001E+02
              0.163501667503457E+02
             -0.368620032487200E+02
             -0.477732934050992E+02
             -0.564540394731870E+02
             -0.267269470909226E+02
             -0.109921123983222E+03
             -0.292419091910137E+02
             -0.839222555042515E+02
              0.210706611209452E+02
             -0.477923330914614E+02
              0.398206751461034E+02
             -0.943823946834931E+02
             -0.330723480279970E+02
              0.548873524132741E+02
              0.208051134950499E+02
             -0.832756765810538E+02
              0.631806897648532E+02
             -0.257542036866988E+02
              0.513618812750037E+02
             -0.242782631763148E+02
             -0.752953647396525E+02
              0.112262481443214E+02
             -0.612776239656586E+02
             -0.167871297036034E+02
             -0.151803338248799E+01
              0.418872162872048E+02
              0.127287250805350E+03
             -0.462452474853066E+02
             -0.363375838760722E+02
             -0.100270344629610E+01
             -0.130231717706683E+02
             -0.824287819691878E+02
             -0.597908752202771E+02
              0.518056648172186E+02
             -0.289200328355637E+02
              0.170154904901615E+02
             -0.490437217663901E+02
             -0.132398815041021E+02
             -0.438130385618567E+02
              0.566635907860431E+02
              0.150925997100060E+02
             -0.232250388124662E+02
             -0.127680747794607E+02
              0.670705607678295E+01
             -0.619278341420613E+01
              0.442388353123654E+02
             -0.252496587000570E+02
              0.283637631345573E+01
              0.340167675597469E+02
              0.171262283207088E+02
             -0.160607798221138E+02
              0.156588498721220E+03
              0.539623168613245E+02
              0.120097518303501E+01
              0.161776868833682E+02
             -0.616113530498412E+02
              0.315811397772272E+02
             -0.723569097470332E+02
             -0.252983979331112E+02
             -0.523964839382896E+02
             -0.220611617321000E+02
              0.570632151936258E+02
             -0.538171040163278E+02
              0.161785280581644E+02
             -0.411300780345471E+01
              0.386929707057612E+01
             -0.434527913178608E+02
             -0.479164916618961E+02
             -0.406766293334556E+01
             -0.425045587449149E+02
             -0.217459844558445E+02
             -0.439588507268778E+02
             -0.119275788311141E+02
             -0.359657757375712E+02
             -0.517464989892533E+02
              0.212878285129682E+02
             -0.209326930322913E+02
              0.188417660103248E+02
              0.974570951899409E+01
             -0.739736699537599E+02
             -0.548918955664031E+02
             -0.399686590077818E+02
              0.354602610130753E+02
              0.267793000196244E+01
             -0.627745191071302E+02
              0.587024524974420E+02
             -0.402080693963447E+02
              0.546497404784155E+02
             -0.290377016258187E+02
             -0.446814180580998E+02
              0.298842582694961E+02
             -0.659260371579975E+02
             -0.380375499500048E+02
              0.673689110782621E+02
              0.204565185782624E+02
             -0.361414758608953E+02
              0.490662650977544E+02
             -0.174363154460316E+02
             -0.323617116714182E+02
             -0.302340855271220E+02
             -0.501864812377204E+02
              0.250182957343470E+02
             -0.934880043572568E+02
             -0.841602195897061E+02
             -0.735708837683308E+01
             -0.307409887309886E+02
             -0.577132589061752E+02
              0.723646891894061E+02
              0.131841047028557E+03
             -0.361059060986002E+02
             -0.257766903814837E+01
             -0.638168302147548E+02
              0.652018456160890E+02
              0.171257028666431E+02
             -0.182372394522249E+02
             -0.410720272630173E+02
              0.148868942862654E+02
             -0.587217728683703E+02
             -0.197955681819903E+02
             -0.906322800940790E+02
              0.337812255027750E+02
              0.168992199118534E+02
              0.181521249363402E+01
             -0.711964502718467E+01
             -0.330986791819553E+02
             -0.762870713648198E+01
              0.125844186306745E+03
             -0.199265453257111E+02
             -0.438648887563696E+02
             -0.685581798612642E+02
              0.109563624575623E+02
             -0.343196797123639E+02
              0.594498576550492E+01
              0.262264832878230E+02
              0.102354437351919E+02
              0.278821897040771E+02
              0.120481430309951E+02
              0.630937234245921E+02
              0.316972074897456E+02
             -0.327523301123810E+02
              0.357197523935715E+02
              0.380248732176516E+02
              0.121129695161413E+02
              0.487753033747017E+02
             -0.225878883604578E+02
              0.767401516595397E+02
              0.173227104187952E+02
             -0.272972798668301E+02
             -0.724279441340580E+01
             -0.186752956120296E+02
              0.261976561944026E+02
             -0.234627537038614E+02
             -0.185741936373148E+00
             -0.851943193708041E+01
              0.811394942434988E+02
              0.501297307191394E+02
             -0.688038711103841E+02
             -0.480744972820759E+01
             -0.556250755338511E+02
             -0.159534468030811E+02
             -0.268789443726656E+02
              0.379061127147884E+01
              0.601101534358421E+00
             -0.258370917790402E+02
              0.819386748418577E+01
             -0.605263920464387E+01
             -0.128495222838287E+02
              0.860900042924075E+02
              0.181982527023520E+02
             -0.809009464347623E+02
             -0.458981675452981E+02
              0.947391670236841E+02
              0.278381881214731E+02
             -0.107071799941943E+02
              0.104797902478703E+03
             -0.194904883262987E+02
             -0.123124222152096E+02
             -0.543372125735880E+01
              0.107740005859454E+02
              0.273449150566467E+02
              0.781770143126496E+01
              0.306062660296833E+02
             -0.188054699715847E+02
             -0.305104111710774E+02
             -0.418798199988151E+02
             -0.477832234767709E+02
              0.464739958852712E+02
              0.127099740701008E+02
              0.388488039963052E+02
              0.133838843648722E+02
              0.857620133251090E+02
              0.157049923057925E+02
             -0.847896677850031E+02
             -0.335115610266283E+02
              0.133610920140388E+02
             -0.303489843164196E+02
              0.628152388975058E+02
             -0.889205755412490E+01
              0.149015034381683E+02
              0.498659920019869E+02
             -0.709221325767005E+02
              0.150058617848473E+03
              0.209149798364331E+02
              0.271995208561644E+02
              0.348562206932270E+02
              0.103697082410838E+02
             -0.155746779313063E+01
              0.358998481597790E+02
             -0.358029889412354E+02
              0.775382898671103E+02
              0.686676929651490E+02
             -0.406941560190860E+02
              0.149823998896903E+02
              0.671827400481948E+02
             -0.224342281104993E+02
              0.155050061644861E+02
              0.435489136104591E+02
              0.422901660953216E+02
             -0.786413421075356E+02
             -0.152639368338930E+02
             -0.356440850577681E+02
             -0.149339620421870E+01
             -0.769075699784885E+01
             -0.539468385426960E+01
             -0.180602219765293E+02
             -0.294733814669853E+02
              0.640319294537296E+01
              0.111691295734180E+02
              0.536815076472706E+02
             -0.391485663308166E+02
              0.375889368431323E+02
              0.439717106686728E+02
             -0.186500409159131E+02
              0.873604681263384E+02
             -0.699470061608510E+02
             -0.103410327014643E+03
             -0.663779582579320E+01
             -0.268688427431823E+01
              0.384194316560570E+01
              0.791424523601315E+02
             -0.106937755263466E+02
              0.417724776237611E+02
              0.445315437978693E+02
              0.386139747312056E+02
             -0.998144326052000E+01
              0.628544584011549E+02
             -0.133859297266953E+02
             -0.308502318522118E+02
             -0.479725874370808E+02
              0.593135221863348E+01
              0.369933773508578E+02
             -0.602428612087130E+01
              0.393542333389579E+02
             -0.175133589657139E+01
              0.656258686588816E+02
              0.187400088920245E+02
              0.100075120927190E+02
             -0.121610488187433E+02
              0.332656171029974E+02
              0.363495282626898E+02
              0.232886736554106E+02
             -0.522309821002693E+00
             -0.551984196855203E+02
              0.261387785651178E+02
              0.175671795280419E+02
              0.403212447942954E+02
              0.272723148689509E+02
              0.373451543379933E+02
             -0.607013601653182E+01
              0.252169925222672E+02
             -0.299467552936630E+02
             -0.198328411478178E+01
             -0.570313018911648E+02
             -0.308715453534517E+02
              0.379788636258234E+02
             -0.937581563636054E+02
              0.294690077052761E+02
              0.184370672779531E+02
              0.842338666474184E+02
             -0.300249004480957E+02
              0.330404299662212E+02
             -0.137911425042898E+02
             -0.465102802174536E+02
             -0.762844155825974E+02
             -0.531587333671612E+01
             -0.862017288974784E+02
              0.199642102060186E+02
             -0.248047312748499E+02
              0.306695926126012E+02
              0.237839841792235E+02
             -0.241980524845972E+02
             -0.266380397999387E+02
              0.391857129395750E+02
             -0.589812733669320E+02
             -0.117127424221291E+02
             -0.196390851348808E+02
              0.213600007242741E+02
             -0.885303004184368E+01
              0.361917072650101E+01
             -0.200732772677267E+02
              0.559939598569525E+02
             -0.441365562444339E+02
              0.786832234422559E+01
              0.586896467192116E+02
             -0.324421209435688E+02
              0.363474371969875E+01
             -0.878597978856112E+01
             -0.670527474814161E+02
             -0.482962679916083E+02
             -0.858823542209121E+01
              0.241605639904233E+02
              0.303302867257798E+02
              0.861155999513926E+01
             -0.418729597816946E+01
              0.151888616632838E+02
             -0.440501164549070E+02
              0.329447421897464E+01
             -0.532487024248808E+02
             -0.325602149931893E+02
              0.475996618744039E+02
             -0.295906632272156E+02
              0.624269768617106E+02
             -0.215438436040777E+02
              0.354247055581930E+02
              0.242253835604759E+02
             -0.645445573869882E+02
             -0.280752097272775E+02
              0.937044002722450E+01
             -0.372990443074668E+02
             -0.340521404064981E+02
             -0.832141412843259E+02
             -0.540402159649691E+02
             -0.511455366581928E+02
             -0.416700931583168E+02
             -0.100440810976119E+01
              0.100313135642310E+02
              0.110211530086079E+01
              0.154054964093067E+02
             -0.550642834120495E+02
              0.142267636248658E+02
              0.257982731619258E+02
             -0.668386132410554E+02
             -0.703285033816684E+02
             -0.432383456671965E+02
             -0.173051169647057E+02
              0.178502446874933E+02
              0.453872008800818E+01
             -0.426741309796814E+02
              0.366574061495226E+02
             -0.217004576079989E+02
              0.518658506395655E+02
             -0.889380703271265E+02
              0.599497446658680E+02
             -0.219061600329117E+01
             -0.369569939217875E+02
             -0.216815526689273E+02
              0.471664561190177E+01
              0.375932324018838E+02
             -0.757845383249715E+02
             -0.120991596405611E+02
             -0.217046123863278E+02
              0.511833708308889E+02
              0.866801500135730E+02
             -0.967723371722539E+02
              0.946057426553372E+02
              0.468339705071337E+02
             -0.727186892025766E+02
             -0.367190100550632E+02
              0.753925519753256E+02
              0.633220592661172E+02
             -0.181768352832237E+02
             -0.465955785522129E+01
              0.738787469778158E+01
              0.651046141468082E+02
             -0.509986195278480E+02
              0.158470265394912E+02
             -0.474496258924685E+01
              0.348165185741818E+02
             -0.748591889926073E+02
             -0.647200815965078E+01
             -0.351407987599009E+02
              0.461922623345268E+02
              0.469678632535525E+02
             -0.864086235011583E+02
             -0.488036702840261E+02
             -0.256668729107106E+02
             -0.340718080864441E+02
             -0.109377529364446E+02
[...]
              0.284085960506675E+02
              0.142070017788791E+03
              0.243181396038316E+02
              0.122955511997283E+02
             -0.465136039637377E+02
             -0.638559328861741E+02
             -0.189240263601325E+02
              0.330436472293944E+02
             -0.428385540962222E+01
              0.190768629437080E+02
              0.336921906583602E+02
             -0.587523452091127E+02
              0.222985424334327E+02
              0.582170425607026E+02
              0.553765646648118E+02
             -0.421891487596974E+01
             -0.133497153333428E+01
             -0.994573451959414E+01
             -0.482948979954293E+02
             -0.676560831235997E+02
              0.786643712239430E+02
             -0.526107694995915E+01
             -0.588761699106549E+02
              0.176129102781192E+01
             -0.206052826582304E+02
              0.940176860500995E+02
             -0.217090927572639E+02
             -0.354545714021585E+02
              0.336322795673859E+02
             -0.146253464595603E+02
              0.390555207402800E+02
             -0.231874339317130E+01
              0.101248132174737E+03
              0.491086013902569E+02
             -0.503291489164604E+01
             -0.322834243144561E+02
              0.233052975901003E+02
             -0.529553481996236E+02
             -0.127835442653915E+02
              0.587008938783737E+02
             -0.288225523704065E+02
             -0.439011844845394E+02
             -0.223807850820577E+02
              0.519652863711798E+02
              0.124845322460474E+02
             -0.850409870764369E+02
              0.304609012554001E+02
              0.151841117570999E+02
              0.580816502037223E+01
             -0.514427758693176E+02
             -0.374983877044292E+01
              0.323653593105900E+02
              0.513412023951213E+02
              0.634234562187182E+02
              0.229869050060299E+02
              0.768632122110915E+00
             -0.499406418493539E+02
             -0.510920751593670E+02
             -0.748751745888365E+02
             -0.620653938982241E+01
              0.309728787486503E+02
             -0.377231435222413E+01
              0.547853757651110E+02
             -0.318695380790319E+02
              0.166690477409903E+02
             -0.103485782110810E+02
             -0.290156441272343E+02
              0.586961074557092E+02
              0.792466690657540E+01
              0.605764500803774E+02
              0.511668208572905E+01
              0.265175066747102E+02
             -0.193080523106744E+02
              0.587245005123639E+02
             -0.112124653496735E+02
             -0.109913251417652E+00
             -0.791787190282669E+02
             -0.128359246474183E+02
              0.720344828187270E+02
              0.674183924575265E+02
              0.252582796403628E+02
             -0.130861623191011E+02
              0.347685173636162E+01
             -0.174291447754912E+02
             -0.215531567236559E+01
              0.909871583455348E+02
              0.128445450332981E+01
             -0.191166944277783E+02
             -0.110943414242373E+03
             -0.552943652988751E+02
             -0.375888655949011E+02
             -0.659605157107162E+02
             -0.556791195513028E+02
             -0.683860335887967E+02
             -0.447998116772989E+02
             -0.411143305560058E+02
             -0.452976962621181E+02
              0.484368764669187E+02
             -0.294183743630184E+02
             -0.996287060040853E+02
              0.419757180041029E+02
             -0.260713411149612E+02
             -0.792340779031638E+02
              0.945848948805922E+02
             -0.220244882458335E+02
              0.228207169268358E+02
              0.455753614858724E+02
             -0.127434903452206E+01
              0.255113190611423E+02
              0.472086214946302E+01
              0.427156867088538E+00
             -0.150997600883545E+02
             -0.717377400494242E+02
              0.133512712179592E+02
             -0.129581887989152E+03
              0.625976692355474E+02
             -0.441419635958225E+02
             -0.163662467209570E+02
             -0.158711464970436E+02
              0.721798379389354E+01
             -0.227891282203006E+02
              0.297536071644552E+02
             -0.521898410179473E+02
              0.367676861908624E+02
              0.371955175353476E+02
              0.168145168083971E+02
              0.100803033540878E+02
              0.198318094189257E+02
              0.626553308979845E+01
              0.310719015176389E+02
             -0.797620772317248E+01
             -0.594417051681403E+02
              0.758229103239580E+01
             -0.153366878745524E+02
             -0.194443145114019E+01
              0.507797016439843E+02
             -0.828300215627501E+02
             -0.148337411836957E+01
              0.597292661550568E+00
              0.998388725410553E+01
              0.318912353843970E+02
             -0.123657875916369E+02
              0.837291621992894E+02
              0.487861849552975E+02
             -0.183447318795357E+02
             -0.954837932474317E+01
              0.109505473197927E+01
              0.770961449133899E+02
             -0.587053904185364E+02
             -0.105959659209223E+03
              0.309837845360415E+02
             -0.163550191775481E+02
             -0.139974432608388E+02
              0.130884671646386E+02
              0.769822027208138E+02
              0.464846472195941E+02
             -0.153614320522129E+02
             -0.504203822758941E+02
             -0.554132328015967E+01
              0.306910825906642E+02
             -0.112097542297166E+02
             -0.757441344916444E+02
             -0.276365682406220E+01
             -0.892043891553673E+02
             -0.476838801222806E+02
              0.770520231294774E+02
             -0.484626137823733E+02
             -0.638117705597516E+02
             -0.515279093861589E+02
             -0.350726361755352E+02
              0.341778267584386E+02
              0.823466903903036E+02
             -0.362004925093675E+01
              0.277035414600421E+02
             -0.184465398447899E+02
             -0.695390183590315E+02
              0.466019592745728E+02
             -0.446129011708510E+02
              0.321994969953319E+02
              0.376626344348712E+02
             -0.661769387434288E+01
              0.390740673886281E+02
              0.438899252863765E+02
              0.100944377162096E+03
             -0.155860417969942E+02
             -0.457759066995717E+02
             -0.614028247945510E+02
             -0.124492215971811E+02
             -0.234322135151065E+02
              0.103158019033441E+03
             -0.449876443556979E+02
              0.105484115771719E+02
              0.969836966101718E+01
             -0.264802745930025E+02
             -0.800916009631355E+02
             -0.700566616451414E+01
              0.981955596291012E+02
              0.946689315603449E+01
              0.809803131291073E+01
             -0.528586216743074E+02
             -0.606503911496256E+02
             -0.569422505123184E+01
              0.501205083752500E+02
             -0.222494480260719E+02
              0.108154203506245E+03
             -0.436907890534690E+02
              0.146813973376531E+02
             -0.223996061314781E+02
             -0.719722786995026E+02
              0.169840336851968E+01
             -0.502857368325076E+02
             -0.762144502760279E+02
              0.620709931577869E+01
              0.236131881827910E+01
              0.515131318999246E+02
              0.187960975516735E+02
             -0.324294137376635E+02
              0.230292662477671E+02
             -0.813151199092673E+02
             -0.522408182264295E+02
              0.903527623207589E+02
              0.142125677487936E+02
             -0.187741388804327E+02
             -0.352741288724573E+02
             -0.269795943640281E+01
             -0.591242659357033E+01
              0.832410436795686E+02
              0.418624090126272E+02
             -0.165919960962739E+02
             -0.121502776746063E+02
             -0.428286791656121E+02
             -0.200622457020511E+02
             -0.670992255291437E+02
              0.460727354601800E+02
              0.547191425755736E+01
              0.144774389964400E+02
              0.156813306237479E+02
             -0.604204037951941E+00
             -0.169014835850137E+02
             -0.300329418645934E+01
             -0.100668860814412E+03
             -0.229958539906197E+02
             -0.768612219417253E+01
             -0.948750637813455E+01
              0.546916433441699E+02
              0.625275344441306E+02
              0.165275582615701E+02
             -0.972394582689891E+02
              0.648674738955378E+02
             -0.215426656515046E+02
             -0.377719343042988E+02
             -0.865925970044944E+02
             -0.387158273261896E+02
              0.566145379518223E+02
              0.245093022185022E+02
              0.517581813097485E+01
              0.293124514836958E+02
             -0.565932714748230E+02
             -0.423530226690733E+02
              0.516555921546715E+02
              0.388039930249687E+02
              0.519591294771395E+02
             -0.114548224763143E+01
              0.688665197978560E+01
              0.570488128395103E+02
              0.964577907962516E+02
             -0.300295447625384E+02
              0.323740393755602E+02
             -0.119891383245694E+02
             -0.413021682810545E+02
             -0.315044416748014E+02
             -0.301122450993884E+02
             -0.131643607412305E+02
             -0.524303880014771E+02
             -0.217235578937763E+02
             -0.141397521094136E+03
              0.369473616522964E+02
              0.207554245584353E+02
             -0.395890757565716E+01
             -0.380568682528269E+02
             -0.204368990440184E+02
             -0.528073523617865E+02
              0.151169973394927E+02
              0.821455604584496E+02
             -0.252618758417593E+02
             -0.163427955756169E+02
              0.238614020373893E+02
             -0.490525016248893E+02
              0.881986015424297E+02
              0.154529614398452E+02
              0.226144941772650E+02
              0.491030585821182E+02
              0.316075888174652E+01
              0.543164304442172E+02
              0.143517680997984E+02
             -0.106249437164127E+02
              0.734005808365885E+01
              0.737793956011444E+00
              0.728146778503148E+02
              0.101322955192921E+02
              0.121153965884247E+02
             -0.130380143928036E+02
              0.132560042597597E+02
             -0.912998415515886E+02
             -0.326237452473812E+02
             -0.458450413309940E+02
              0.485866952097128E+02
             -0.291880821658422E+02
             -0.659206932031964E+02
              0.539648816693471E+02
             -0.122206965229168E+02
              0.440669273384655E+02
             -0.900285429295673E+02
              0.231903731552518E+02
              0.857024189906028E+01
              0.585938461557794E+01
             -0.836745232504092E+01
             -0.906704593592201E+01
              0.480421823580242E+02
              0.201183785950752E+01
             -0.476424541505575E+02
             -0.176721461065804E+02
              0.276770394384724E+02
             -0.118140736761221E+03
             -0.931103624932983E+02
              0.395659621603500E+01
              0.118264938984878E+02
             -0.414444342263166E+02
             -0.386966872649123E+01
              0.112279125034045E+03
              0.306715712914192E+02
             -0.572484913902648E+02
              0.926615547214618E+01
             -0.967840832053786E+01
              0.106026350117585E+02
             -0.338548083666043E+02
              0.196130472549402E+02
              0.284976212236850E+02
             -0.300173632258912E+01
              0.108393233440753E+03
             -0.140089238586266E+02
             -0.316488945017422E+02
              0.143924216463447E+02
              0.467500623232892E+02
             -0.356210108807866E+02
             -0.317822227204429E+01
              0.966740785848304E+02
             -0.464600077687976E+01
              0.622732114733890E+02
              0.135790185221230E+02
             -0.900657442151807E+01
             -0.305464741237814E+02
              0.567155355442742E+02
             -0.515463497684591E+02
             -0.220093070283491E+01
             -0.170624116395413E+02
             -0.405797186409802E+02
              0.185222588625151E+02
              0.239923427909174E+02
              0.115839970918227E+02
              0.730128117619643E+00
             -0.385523019474127E+02
              0.215545883426145E+02
             -0.674750511695672E+01
             -0.246734219079857E+02
             -0.210871495415007E+02
              0.203267188199342E+02
             -0.595918392784927E+01
             -0.349931344996783E+02
             -0.106858783403125E+03
              0.103232747856510E+02
              0.248597652039996E+02
             -0.388293200821774E+02
             -0.211475643731432E+02
              0.808670714307181E+02
              0.657141539711452E+01
              0.311937812666187E+02
              0.395345652911726E+01
              0.322717060446401E+02
              0.646902789382358E+01
             -0.373617789629465E+02
             -0.239767673505207E+01
              0.876478206755189E+01
              0.274708695772527E+02
              0.782968062705314E+02
              0.508434342405675E+02
              0.200795914636501E+00
              0.169428700165544E+02
              0.614388117155392E+02
              0.236536627682510E+02
             -0.753901895520539E+02
             -0.274334806355627E+02
              0.151012453319998E+02
              0.563827909269236E+01
              0.255468146114386E+02
             -0.548678852085022E+02
              0.897190477863828E+01
              0.386965201887050E+02
              0.498957789298383E+02
             -0.435638106913606E+02
             -0.685781551593351E+01
             -0.209160359199461E+01
             -0.134351785373890E+02
             -0.365832288961908E+02
             -0.215311266856007E+02
             -0.210145291321236E+01
              0.796982596248188E+01
              0.422264005990001E+02
             -0.309053815917921E+02
              0.827737940608224E+02
              0.328095875609642E+02
              0.220356722750533E+02
              0.333886668142033E+02
              0.323337825672462E+02
              0.347192841284163E+02
              0.538214387837423E+02
             -0.434820095710161E+02
              0.620781704093965E+02
             -0.112507349218177E+03
              0.307912376913701E+02
             -0.106715843957804E+03
              0.856213910479696E+02
              0.692211871765950E+02
             -0.109966754259660E+02
             -0.494006545278210E+02
             -0.430443708465984E+02
             -0.624463814931152E+02
             -0.630119672469488E+02
              0.552932869518718E+02
              0.406188650847672E+02
              0.237287198982120E+02
              0.374018421106540E+02
              0.404431395882332E+02
             -0.382984313399483E+02
             -0.198022949961980E+02
              0.587410365575030E+02
             -0.116262199723266E+02
              0.552766951791789E+02
              0.701026952526162E+02
             -0.556147942992429E+01
             -0.707836449575012E+02
             -0.862550174473768E+00
             -0.247806648570176E+01
             -0.884898366405525E+01
             -0.179579449624634E+01
             -0.653981745758822E+02
             -0.210442406957463E+02
              0.543870075568919E+01
              0.905280371669235E+01
              0.469961224880848E+02
             -0.398739277503668E+02
              0.657900829007484E+02
             -0.425988487972378E+02
              0.211145480130295E+02
              0.351192436129262E+02
 
 BEEF-vdW xc energy contributions
           1 :   -784.167698402750     
           2 :    720.272487777337     
           3 :   -609.623227843135     
           4 :    479.341529507896     
           5 :   -357.020235904955     
           6 :    262.577866266088     
           7 :   -203.726826826083     
           8 :    175.924678613960     
           9 :   -166.404541677572     
          10 :    160.381095337965     
          11 :   -146.899038016833     
          12 :    122.116485913722     
          13 :   -89.1587737496455     
          14 :    55.1718972685707     
          15 :   -27.2753375325751     
          16 :    9.25084410785200     
          17 :  -0.252697871765918     
          18 :   -4.20286874523151     
          19 :    9.69791905371210     
          20 :   -20.1661071921106     
          21 :    36.2002160965006     
          22 :   -55.0755684954999     
          23 :    72.3047200264313     
          24 :   -83.8778719480007     
          25 :    88.0879725543483     
          26 :   -86.1350350542016     
          27 :    81.3357366328943     
          28 :   -77.4182492004246     
          29 :    76.7539417693754     
          30 :   -79.3578797792115     
          31 :   -86.0934719516478     
          32 :   -65.9652565891600     

     Writing output data file ./pwscf.save/
 
     init_run     :    327.83s CPU    332.27s WALL (       1 calls)
     electrons    :  13684.48s CPU  13817.18s WALL (       1 calls)
     forces       :    100.83s CPU    102.06s WALL (       1 calls)

     Called by init_run:
     wfcinit      :    280.88s CPU    284.32s WALL (       1 calls)
     potinit      :     44.05s CPU     44.39s WALL (       1 calls)
     hinit0       :      1.09s CPU      1.14s WALL (       1 calls)

     Called by electrons:
     c_bands      :  11514.93s CPU  11618.70s WALL (      21 calls)
     sum_band     :   1571.97s CPU   1584.91s WALL (      21 calls)
     v_of_rho     :    107.70s CPU    111.96s WALL (      21 calls)
     newd         :     30.59s CPU     42.34s WALL (      21 calls)
     PAW_pot      :    140.35s CPU    140.36s WALL (      21 calls)
     mix_rho      :    363.72s CPU    364.53s WALL (      21 calls)
     vdW_kernel   :     33.50s CPU     33.50s WALL (       1 calls)

     Called by c_bands:
     init_us_2    :     79.52s CPU     79.87s WALL (     572 calls)
     cegterg      :  10690.80s CPU  10794.03s WALL (     273 calls)

     Called by *egterg:
     cdiaghg      :    116.32s CPU    116.39s WALL (    1732 calls)
     h_psi        :   6763.86s CPU   6800.30s WALL (    1758 calls)
     s_psi        :   1164.83s CPU   1165.04s WALL (    1758 calls)
     g_psi        :     16.90s CPU     16.92s WALL (    1472 calls)

     Called by h_psi:
     h_psi:calbec :   1096.54s CPU   1096.92s WALL (    1758 calls)
     vloc_psi     :   4474.95s CPU   4477.19s WALL (    1758 calls)
     add_vuspsi   :   1165.35s CPU   1165.55s WALL (    1758 calls)

     General routines
     calbec       :   1597.02s CPU   1597.49s WALL (    2083 calls)
     fft          :     48.29s CPU     48.31s WALL (    3281 calls)
     ffts         :    114.18s CPU    114.23s WALL (    8366 calls)
     fftw         :   4554.38s CPU   4556.01s WALL (  357171 calls)
 
     Parallel routines
 
     PWSCF        :      3h56m CPU      3h59m WALL

 
   This run was terminated on:  20: 4:38  20May2022            

=------------------------------------------------------------------------------=
   JOB DONE.
=------------------------------------------------------------------------------=
