
     Program PWSCF v.6.7MaX starts on 20Dec2022 at 15:55:10 

     This program is part of the open-source Quantum ESPRESSO suite
     for quantum simulation of materials; please cite
         "P. Giannozzi et al., J. Phys.:Condens. Matter 21 395502 (2009);
         "P. Giannozzi et al., J. Phys.:Condens. Matter 29 465901 (2017);
          URL http://www.quantum-espresso.org", 
     in publications or presentations arising from this work. More details at
     http://www.quantum-espresso.org/quote

     Parallel version (MPI), running on     1 processors

     MPI processes distributed on     1 nodes
     Reading input from o-ensemble.in
Warning: card &CELL ignored
Warning: card / ignored

     Current dimensions of program PWSCF are:
     Max number of different atomic species (ntypx) = 10
     Max number of k-points (npk) =  40000
     Max angular momentum in pseudopotentials (lmaxx) =  3
     file Pt.pbe-n-kjpaw_psl.1.0.0.UPF: wavefunction(s)  6S 5D renormalized
     file O.pbe-nl-kjpaw_psl.1.0.0.UPF: wavefunction(s)  2S 2P renormalized

     **************************************************************************
     Initializing libbeef V0.1.2 with the BEEF-vdW functional.
     Citation: Wellendorff et al., PRB 85, 235149 (2012).
     **************************************************************************


     IMPORTANT: XC functional enforced from input :
     Exchange-correlation= BEEF-VDW
                           (   1   4  43  14   2   0   0)
     Any further DFT definition will be discarded
     Please, verify this is what you really want


     Subspace diagonalization in iterative solution of the eigenvalue problem:
     a serial algorithm will be used

 
     G-vector sticks info
     --------------------
     sticks:   dense  smooth     PW     G-vecs:    dense   smooth      PW
     Sum        4267    4267   1159               662195   662195   93391
 


     bravais-lattice index     =            0
     lattice parameter (alat)  =      16.0349  a.u.
     unit-cell volume          =   10542.6664 (a.u.)^3
     number of atoms/cell      =           37
     number of atomic types    =            2
     number of electrons       =       366.00
     number of Kohn-Sham states=          220
     kinetic-energy cutoff     =      60.0000  Ry
     charge density cutoff     =     240.0000  Ry
     scf convergence threshold =      1.0E-06
     mixing beta               =       0.7000
     number of iterations used =            8  local-TF  mixing
     Exchange-correlation= BEEF-VDW
                           (   1   4  43  14   2   0   0)

     celldm(1)=  16.034858  celldm(2)=   0.000000  celldm(3)=   0.000000
     celldm(4)=   0.000000  celldm(5)=   0.000000  celldm(6)=   0.000000

     crystal axes: (cart. coord. in units of alat)
               a(1) = (   1.000000   0.000000   0.000000 )  
               a(2) = (   0.500000   0.866025   0.000000 )  
               a(3) = (   0.000000   0.000000   2.952735 )  

     reciprocal axes: (cart. coord. in units 2 pi/alat)
               b(1) = (  1.000000 -0.577350  0.000000 )  
               b(2) = (  0.000000  1.154701  0.000000 )  
               b(3) = (  0.000000  0.000000  0.338669 )  


     PseudoPot. # 1 for Pt read from file:
     /users/bkreitz1/quantum-espresso/potentials/Pt.pbe-n-kjpaw_psl.1.0.0.UPF
     MD5 check sum: 04dc8a03c51ece93fc7b5889c2958091
     Pseudo is Projector augmented-wave + core cor, Zval = 10.0
     Generated using 'atomic' code by A. Dal Corso  v.6.7MaX
     Shape of augmentation charge: PSQ
     Using radial grid of 1277 points,  6 beta functions with: 
                l(1) =   0
                l(2) =   0
                l(3) =   1
                l(4) =   1
                l(5) =   2
                l(6) =   2
     Q(r) pseudized with 0 coefficients 


     PseudoPot. # 2 for O  read from file:
     /users/bkreitz1/quantum-espresso/potentials/O.pbe-nl-kjpaw_psl.1.0.0.UPF
     MD5 check sum: eef08af8b58d9ec80f8fdb78829eb7cf
     Pseudo is Projector augmented-wave + core cor, Zval =  6.0
     Generated using 'atomic' code by A. Dal Corso  v.6.7MaX
     Shape of augmentation charge: PSQ
     Using radial grid of 1095 points,  4 beta functions with: 
                l(1) =   0
                l(2) =   0
                l(3) =   1
                l(4) =   1
     Q(r) pseudized with 0 coefficients 


     atomic species   valence    mass     pseudopotential
        Pt            10.00   195.08400     Pt( 1.00)
        O              6.00    15.99900     O ( 1.00)

     No symmetry found



   Cartesian axes

     site n.     atom                  positions (alat units)
         1           Pt  tau(   1) = (   0.0000000   0.0000000   1.0017346  )
         2           Pt  tau(   2) = (   0.3333333   0.0000000   1.0017346  )
         3           Pt  tau(   3) = (   0.6666667   0.0000000   1.0017346  )
         4           Pt  tau(   4) = (   0.1666667   0.2886751   1.0017346  )
         5           Pt  tau(   5) = (   0.5000000   0.2886751   1.0017346  )
         6           Pt  tau(   6) = (   0.8333333   0.2886751   1.0017346  )
         7           Pt  tau(   7) = (   0.3333333   0.5773503   1.0017346  )
         8           Pt  tau(   8) = (   0.6666667   0.5773503   1.0017346  )
         9           Pt  tau(   9) = (   1.0000000   0.5773503   1.0017346  )
        10           Pt  tau(  10) = (   0.1666667   0.0962250   1.2739001  )
        11           Pt  tau(  11) = (   0.5000000   0.0962250   1.2739001  )
        12           Pt  tau(  12) = (   0.8333333   0.0962250   1.2739001  )
        13           Pt  tau(  13) = (   0.3333333   0.3849002   1.2739001  )
        14           Pt  tau(  14) = (   0.6666667   0.3849002   1.2739001  )
        15           Pt  tau(  15) = (   1.0000000   0.3849002   1.2739001  )
        16           Pt  tau(  16) = (   0.5000000   0.6735753   1.2739001  )
        17           Pt  tau(  17) = (   0.8333333   0.6735753   1.2739001  )
        18           Pt  tau(  18) = (   1.1666667   0.6735753   1.2739001  )
        19           Pt  tau(  19) = (   0.0008649   0.1919370   1.5439456  )
        20           Pt  tau(  20) = (   0.3324497   0.1919359   1.5439541  )
        21           Pt  tau(  21) = (   0.6666511   0.1922468   1.5415842  )
        22           Pt  tau(  22) = (   0.1666587   0.4790570   1.5457108  )
        23           Pt  tau(  23) = (   0.4998189   0.4812118   1.5415807  )
        24           Pt  tau(  24) = (   0.8334859   0.4812139   1.5415754  )
        25           Pt  tau(  25) = (   0.3351127   0.7708274   1.5457157  )
        26           Pt  tau(  26) = (   0.6666563   0.7708065   1.5439455  )
        27           Pt  tau(  27) = (   0.9982055   0.7708278   1.5457141  )
        28           Pt  tau(  28) = (  -0.0117270  -0.0067687   1.8249959  )
        29           Pt  tau(  29) = (   0.3450185  -0.0067669   1.8249933  )
        30           Pt  tau(  30) = (   0.6666488  -0.0002956   1.8178516  )
        31           Pt  tau(  31) = (   0.1666471   0.3021752   1.8249950  )
        32           Pt  tau(  32) = (   0.5021795   0.2899318   1.8142791  )
        33           Pt  tau(  33) = (   0.8311091   0.2899366   1.8142821  )
        34           Pt  tau(  34) = (   0.3330676   0.5774819   1.8178505  )
        35           Pt  tau(  35) = (   0.6666469   0.5747921   1.8142810  )
        36           Pt  tau(  36) = (   1.0002188   0.5774754   1.8178526  )
        37           O   tau(  37) = (   0.1666391   0.0962108   1.9542138  )

     number of k points=    13  Marzari-Vanderbilt smearing, width (Ry)=  0.0200
                       cart. coord. in units 2pi/alat
        k(    1) = (   0.0000000   0.0000000   0.0000000), wk =   0.0800000
        k(    2) = (   0.0000000   0.2309401   0.0000000), wk =   0.1600000
        k(    3) = (   0.0000000   0.4618802   0.0000000), wk =   0.1600000
        k(    4) = (   0.2000000  -0.1154701   0.0000000), wk =   0.1600000
        k(    5) = (   0.2000000   0.1154701   0.0000000), wk =   0.1600000
        k(    6) = (   0.2000000   0.3464102   0.0000000), wk =   0.1600000
        k(    7) = (   0.2000000  -0.5773503   0.0000000), wk =   0.1600000
        k(    8) = (   0.2000000  -0.3464102   0.0000000), wk =   0.1600000
        k(    9) = (   0.4000000  -0.2309401   0.0000000), wk =   0.1600000
        k(   10) = (   0.4000000  -0.0000000   0.0000000), wk =   0.1600000
        k(   11) = (   0.4000000   0.2309401   0.0000000), wk =   0.1600000
        k(   12) = (   0.4000000  -0.6928203   0.0000000), wk =   0.1600000
        k(   13) = (   0.4000000  -0.4618802   0.0000000), wk =   0.1600000

     Dense  grid:   662195 G-vectors     FFT dimensions: (  80,  80, 240)

     Estimated max dynamical RAM per process >       7.89 GB

     Initial potential from superposition of free atoms

     starting charge  365.99389, renormalised to  366.00000

     negative rho (up, down):  1.192E-02 0.000E+00


     %%%%%%%%%%%%%%%%%%%%%%%%%%%%%%%%%%%%%%%%%%%%%%%%%%%%%%%%%%%%%%%%%%%%%%%%
     %                                                                      %
     % You are using vdW-DF, which was implemented by the Thonhauser group. %
     % Please cite the following two papers that made this development      %
     % possible and the two reviews that describe the various versions:     %
     %                                                                      %
     %   T. Thonhauser et al., PRL 115, 136402 (2015).                      %
     %   T. Thonhauser et al., PRB 76, 125112 (2007).                       %
     %   K. Berland et al., Rep. Prog. Phys. 78, 066501 (2015).             %
     %   D.C. Langreth et al., J. Phys.: Condens. Matter 21, 084203 (2009). %
     %                                                                      %
     %                                                                      %
     % If you are calculating the stress with vdW-DF, please also cite:     %
     %                                                                      %
     %   R. Sabatini et al., J. Phys.: Condens. Matter 24, 424209 (2012).   %
     %                                                                      %
     %%%%%%%%%%%%%%%%%%%%%%%%%%%%%%%%%%%%%%%%%%%%%%%%%%%%%%%%%%%%%%%%%%%%%%%%


     Starting wfcs are  328 randomized atomic wfcs
     Checking if some PAW data can be deallocated... 

     total cpu time spent up to now is      275.9 secs

     Self-consistent Calculation

     iteration #  1     ecut=    60.00 Ry     beta= 0.70
     Davidson diagonalization with overlap
     ethr =  1.00E-02,  avg # of iterations =  2.0

     Threshold (ethr) on eigenvalues was too large:
     Diagonalizing with lowered threshold

     Davidson diagonalization with overlap
     ethr =  5.52E-04,  avg # of iterations =  4.0

     negative rho (up, down):  2.228E-02 0.000E+00

     total cpu time spent up to now is     1381.2 secs

     total energy              =  -27796.32963422 Ry
     estimated scf accuracy    <       2.18428657 Ry

     iteration #  2     ecut=    60.00 Ry     beta= 0.70
     Davidson diagonalization with overlap
     ethr =  5.97E-04,  avg # of iterations =  2.0

     negative rho (up, down):  2.245E-02 0.000E+00

     total cpu time spent up to now is     1871.1 secs

     total energy              =  -27796.56417887 Ry
     estimated scf accuracy    <       1.16603549 Ry

     iteration #  3     ecut=    60.00 Ry     beta= 0.70
     Davidson diagonalization with overlap
     ethr =  3.19E-04,  avg # of iterations =  1.7

     negative rho (up, down):  2.209E-02 0.000E+00

     total cpu time spent up to now is     2334.8 secs

     total energy              =  -27796.63894360 Ry
     estimated scf accuracy    <       0.24537060 Ry

     iteration #  4     ecut=    60.00 Ry     beta= 0.70
     Davidson diagonalization with overlap
     ethr =  6.70E-05,  avg # of iterations =  9.7

     negative rho (up, down):  1.972E-02 0.000E+00

     total cpu time spent up to now is     3008.1 secs

     total energy              =  -27796.68621499 Ry
     estimated scf accuracy    <       0.15984452 Ry

     iteration #  5     ecut=    60.00 Ry     beta= 0.70
     Davidson diagonalization with overlap
     ethr =  4.37E-05,  avg # of iterations =  2.0

     negative rho (up, down):  1.755E-02 0.000E+00

     total cpu time spent up to now is     3483.2 secs

     total energy              =  -27796.69429224 Ry
     estimated scf accuracy    <       0.03633778 Ry

     iteration #  6     ecut=    60.00 Ry     beta= 0.70
     Davidson diagonalization with overlap
     c_bands:  1 eigenvalues not converged
     c_bands:  1 eigenvalues not converged
     c_bands:  1 eigenvalues not converged
     ethr =  9.93E-06,  avg # of iterations =  9.8

     negative rho (up, down):  1.347E-02 0.000E+00

     total cpu time spent up to now is     4118.7 secs

     total energy              =  -27796.69885715 Ry
     estimated scf accuracy    <       0.00816903 Ry

     iteration #  7     ecut=    60.00 Ry     beta= 0.70
     Davidson diagonalization with overlap
     c_bands:  1 eigenvalues not converged
     ethr =  2.23E-06,  avg # of iterations = 11.1

     negative rho (up, down):  1.224E-02 0.000E+00

     total cpu time spent up to now is     4806.5 secs

     total energy              =  -27796.70061573 Ry
     estimated scf accuracy    <       0.00152780 Ry

     iteration #  8     ecut=    60.00 Ry     beta= 0.70
     Davidson diagonalization with overlap
     ethr =  4.17E-07,  avg # of iterations =  4.0

     negative rho (up, down):  1.188E-02 0.000E+00

     total cpu time spent up to now is     5424.9 secs

     total energy              =  -27796.70095239 Ry
     estimated scf accuracy    <       0.00046344 Ry

     iteration #  9     ecut=    60.00 Ry     beta= 0.70
     Davidson diagonalization with overlap
     ethr =  1.27E-07,  avg # of iterations =  4.0

     negative rho (up, down):  1.170E-02 0.000E+00

     total cpu time spent up to now is     5988.9 secs

     total energy              =  -27796.70104391 Ry
     estimated scf accuracy    <       0.00005874 Ry

     iteration # 10     ecut=    60.00 Ry     beta= 0.70
     Davidson diagonalization with overlap
     ethr =  1.60E-08,  avg # of iterations =  5.5

     negative rho (up, down):  1.144E-02 0.000E+00

     total cpu time spent up to now is     6813.9 secs

     total energy              =  -27796.70108063 Ry
     estimated scf accuracy    <       0.00004225 Ry

     iteration # 11     ecut=    60.00 Ry     beta= 0.70
     Davidson diagonalization with overlap
     ethr =  1.15E-08,  avg # of iterations =  2.0

     negative rho (up, down):  1.137E-02 0.000E+00

     total cpu time spent up to now is     7297.3 secs

     total energy              =  -27796.70108099 Ry
     estimated scf accuracy    <       0.00003490 Ry

     iteration # 12     ecut=    60.00 Ry     beta= 0.70
     Davidson diagonalization with overlap
     ethr =  9.54E-09,  avg # of iterations =  1.1

     negative rho (up, down):  1.136E-02 0.000E+00

     total cpu time spent up to now is     7739.2 secs

     total energy              =  -27796.70108083 Ry
     estimated scf accuracy    <       0.00001985 Ry

     iteration # 13     ecut=    60.00 Ry     beta= 0.70
     Davidson diagonalization with overlap
     ethr =  5.42E-09,  avg # of iterations =  1.2

     negative rho (up, down):  1.147E-02 0.000E+00

     total cpu time spent up to now is     8180.7 secs

     total energy              =  -27796.70108149 Ry
     estimated scf accuracy    <       0.00000520 Ry

     iteration # 14     ecut=    60.00 Ry     beta= 0.70
     Davidson diagonalization with overlap
     ethr =  1.42E-09,  avg # of iterations =  2.2

     negative rho (up, down):  1.160E-02 0.000E+00

     total cpu time spent up to now is     8664.3 secs

     total energy              =  -27796.70108119 Ry
     estimated scf accuracy    <       0.00000299 Ry

     iteration # 15     ecut=    60.00 Ry     beta= 0.70
     Davidson diagonalization with overlap
     ethr =  8.16E-10,  avg # of iterations =  1.3

     negative rho (up, down):  1.190E-02 0.000E+00

     total cpu time spent up to now is     9109.2 secs

     total energy              =  -27796.70108042 Ry
     estimated scf accuracy    <       0.00000225 Ry

     iteration # 16     ecut=    60.00 Ry     beta= 0.70
     Davidson diagonalization with overlap
     ethr =  6.16E-10,  avg # of iterations =  1.2

     negative rho (up, down):  1.220E-02 0.000E+00

     total cpu time spent up to now is     9551.2 secs

     total energy              =  -27796.70107967 Ry
     estimated scf accuracy    <       0.00000144 Ry

     iteration # 17     ecut=    60.00 Ry     beta= 0.70
     Davidson diagonalization with overlap
     ethr =  3.93E-10,  avg # of iterations =  2.0

     negative rho (up, down):  1.255E-02 0.000E+00

     total cpu time spent up to now is    10010.4 secs

     End of self-consistent calculation

          k = 0.0000 0.0000 0.0000 ( 82785 PWs)   bands (ev):

   -17.1078  -6.6483  -5.3699  -4.4831  -4.4830  -4.3894  -4.2433  -4.2380
    -4.2280  -4.2280  -4.2100  -4.0667  -4.0666  -3.7357  -3.6943  -3.6942
    -3.6818  -3.5930  -3.5930  -3.4771  -3.2491  -3.2491  -3.2081  -3.0747
    -3.0747  -3.0521  -3.0222  -3.0221  -2.9960  -2.9315  -2.9315  -2.8906
    -2.8105  -2.8105  -2.7667  -2.7512  -2.7511  -2.7502  -2.7311  -2.7103
    -2.7103  -2.5177  -2.5176  -2.2764  -2.2149  -2.1509  -2.1509  -2.1175
    -2.1174  -2.1025  -2.1025  -2.0746  -2.0427  -1.9087  -1.9087  -1.8215
    -1.8215  -1.8166  -1.4180  -1.4179  -1.3481  -1.3480  -1.3105  -1.2831
    -1.2671  -1.2011  -1.2010  -1.1535  -1.1535  -1.1418  -1.1333  -1.1104
    -1.1104  -1.1052  -1.0849  -1.0645  -1.0645  -1.0373  -1.0373  -1.0296
    -0.9458  -0.9457  -0.9327  -0.9326  -0.9120  -0.8937  -0.7619  -0.7447
    -0.7446  -0.7071  -0.7071  -0.6870  -0.6649  -0.6648  -0.6582  -0.5986
    -0.5985  -0.5033  -0.5033  -0.4475  -0.4474  -0.4474  -0.4418  -0.3827
    -0.3315  -0.3315  -0.2863  -0.2727  -0.2726  -0.2294  -0.1821   0.1217
     0.1218   0.1396   0.1705   0.1705   0.2094   0.2094   0.2135   0.2962
     0.3574   0.3574   0.3829   0.3829   0.4136   0.4476   0.4476   0.4754
     0.5445   0.6512   0.6512   0.6607   0.6886   0.6889   0.7206   0.7206
     0.8625   0.9440   0.9441   0.9531   0.9995   0.9995   1.0275   1.0275
     1.0498   1.0679   1.0679   1.1815   1.2068   1.2118   1.2118   1.3189
     1.3190   1.3687   1.3805   1.3805   1.4003   1.4095   1.4095   1.4116
     1.4329   1.4329   1.4595   1.5186   1.5187   1.5281   1.5281   1.5352
     1.6094   1.6094   1.6099   1.6284   1.6284   1.6726   1.6726   1.6985
     1.7542   1.7588   1.7588   1.7816   1.7890   1.7890   1.8494   1.8494
     1.8811   1.8811   1.9042   1.9127   2.0036   2.0036   2.0516   2.1465
     2.1467   2.1735   2.2193   2.2193   2.2218   2.4266   2.4266   2.7384
     3.0989   3.0990   3.1010   3.1177   3.4314   3.4315   4.4967   5.4309
     5.4310   5.4412   5.6045   5.6046   6.0235   7.0240   7.0241   7.0254
     7.0863   7.1009   7.1009   7.1706

          k = 0.0000 0.2309 0.0000 ( 82740 PWs)   bands (ev):

   -17.1076  -6.5031  -5.2356  -4.7928  -4.4935  -4.4316  -4.2706  -4.1891
    -4.1832  -4.1048  -4.0249  -3.9741  -3.9392  -3.7897  -3.7392  -3.6271
    -3.6251  -3.5865  -3.5147  -3.4278  -3.3004  -3.1987  -3.1727  -3.1598
    -3.0970  -3.0731  -3.0394  -3.0157  -3.0057  -2.9514  -2.9367  -2.8817
    -2.8800  -2.8570  -2.8001  -2.7816  -2.7242  -2.6942  -2.6076  -2.5791
    -2.5476  -2.4829  -2.4387  -2.3281  -2.3033  -2.2496  -2.2337  -2.2257
    -2.1741  -2.1564  -2.0333  -2.0177  -1.9744  -1.9078  -1.8944  -1.8398
    -1.8315  -1.7717  -1.5967  -1.5299  -1.5018  -1.4778  -1.4630  -1.4246
    -1.3806  -1.3782  -1.3342  -1.3328  -1.2955  -1.2412  -1.2099  -1.1740
    -1.1594  -1.1414  -1.1175  -1.0697  -1.0407  -1.0300  -0.9737  -0.9594
    -0.9549  -0.9062  -0.8792  -0.8766  -0.8440  -0.8348  -0.7797  -0.7762
    -0.7429  -0.7338  -0.7073  -0.6996  -0.6665  -0.6356  -0.6308  -0.5910
    -0.5691  -0.5635  -0.5486  -0.5021  -0.5007  -0.4581  -0.4505  -0.4049
    -0.4004  -0.3291  -0.3147  -0.2747  -0.2566  -0.2513  -0.2380  -0.1949
    -0.1948  -0.1389  -0.1049   0.0178   0.1035   0.1659   0.1851   0.1875
     0.2305   0.2385   0.2582   0.2911   0.4003   0.4170   0.4843   0.5061
     0.5525   0.5712   0.5779   0.5998   0.6109   0.6419   0.6781   0.6990
     0.7988   0.8221   0.8290   0.8366   0.8506   0.9737   0.9804   1.0054
     1.0254   1.0448   1.0799   1.1269   1.1504   1.1878   1.2062   1.2318
     1.2423   1.2700   1.3247   1.3318   1.3606   1.4077   1.4093   1.4411
     1.4554   1.4954   1.5291   1.5824   1.5895   1.6383   1.6680   1.6949
     1.7132   1.7400   1.7429   1.7791   1.7803   1.8327   1.8491   1.8501
     1.8702   1.8787   1.9132   1.9315   1.9572   1.9885   2.0790   2.0887
     2.1270   2.1289   2.1442   2.1806   2.1891   2.2116   2.2355   2.2689
     2.3233   2.3374   2.4055   2.4596   2.5196   2.5627   2.6042   2.7901
     2.8947   3.1865   3.4592   3.7459   3.7876   3.8084   4.6819   4.8855
     5.2548   5.3829   5.8460   5.9208   6.0616   6.1444   6.5636   6.8245
     6.9479   7.1903   7.2518   7.2570

          k = 0.0000 0.4619 0.0000 ( 82738 PWs)   bands (ev):

   -17.1074  -6.0864  -5.4641  -4.8666  -4.4971  -4.4817  -4.3256  -4.1027
    -4.0812  -3.9931  -3.8823  -3.7972  -3.7203  -3.6462  -3.6376  -3.5276
    -3.4747  -3.4523  -3.4291  -3.3753  -3.3616  -3.2917  -3.2686  -3.2388
    -3.2080  -3.1890  -3.1690  -3.1161  -3.0689  -3.0658  -2.8651  -2.8442
    -2.8193  -2.8058  -2.7828  -2.7364  -2.6333  -2.6122  -2.5715  -2.5703
    -2.5359  -2.4758  -2.3636  -2.3404  -2.2883  -2.2537  -2.2019  -2.1707
    -2.1593  -2.1297  -2.0807  -2.0761  -2.0605  -2.0458  -1.9368  -1.8919
    -1.8550  -1.8149  -1.7873  -1.7080  -1.6779  -1.6654  -1.6490  -1.5977
    -1.5005  -1.4638  -1.4453  -1.4269  -1.3839  -1.3378  -1.3120  -1.3040
    -1.2688  -1.1868  -1.1761  -1.1222  -1.0919  -1.0810  -1.0385  -1.0350
    -1.0010  -0.9700  -0.9531  -0.9361  -0.9212  -0.9181  -0.8984  -0.8910
    -0.8677  -0.7969  -0.7928  -0.7569  -0.7376  -0.7134  -0.6864  -0.6846
    -0.5966  -0.5911  -0.5497  -0.5133  -0.4931  -0.4670  -0.4642  -0.4394
    -0.4034  -0.3571  -0.3488  -0.2816  -0.2721  -0.2231  -0.2010  -0.1261
    -0.1074  -0.0409   0.0188   0.0469   0.0534   0.0942   0.1304   0.1376
     0.1606   0.1918   0.2361   0.2531   0.2697   0.2810   0.2905   0.3004
     0.3347   0.4137   0.4161   0.4393   0.4833   0.5158   0.5702   0.5965
     0.6700   0.7210   0.7223   0.7782   0.8376   0.8846   0.9311   0.9742
     1.0125   1.0385   1.0629   1.0808   1.1041   1.1121   1.1584   1.1697
     1.2004   1.2754   1.2912   1.3008   1.3570   1.3610   1.3765   1.3967
     1.4875   1.5443   1.5912   1.5920   1.6426   1.6779   1.7515   1.7573
     1.7661   1.7735   1.8033   1.8095   1.8903   1.8970   1.9099   1.9553
     2.0120   2.0537   2.0788   2.0890   2.0980   2.1306   2.1480   2.1603
     2.2479   2.2542   2.3258   2.3560   2.3578   2.4206   2.4262   2.5682
     2.6109   2.6809   3.0172   3.1657   3.2681   3.3658   3.4353   3.5152
     3.8181   3.9654   4.1222   4.2410   4.6222   4.6628   4.7649   4.8470
     4.8909   5.0740   5.1319   5.3506   5.3809   5.6973   6.0150   6.1537
     6.4681   6.7953   7.0030   7.1903

          k = 0.2000-0.1155 0.0000 ( 82740 PWs)   bands (ev):

   -17.1076  -6.5031  -5.2356  -4.7928  -4.4935  -4.4316  -4.2706  -4.1891
    -4.1832  -4.1048  -4.0249  -3.9741  -3.9392  -3.7897  -3.7392  -3.6271
    -3.6251  -3.5865  -3.5146  -3.4278  -3.3004  -3.1988  -3.1727  -3.1598
    -3.0970  -3.0731  -3.0394  -3.0157  -3.0057  -2.9514  -2.9366  -2.8817
    -2.8800  -2.8570  -2.8001  -2.7816  -2.7242  -2.6941  -2.6076  -2.5791
    -2.5476  -2.4829  -2.4388  -2.3281  -2.3033  -2.2497  -2.2337  -2.2257
    -2.1741  -2.1564  -2.0333  -2.0177  -1.9744  -1.9078  -1.8944  -1.8398
    -1.8315  -1.7717  -1.5967  -1.5299  -1.5018  -1.4778  -1.4630  -1.4246
    -1.3806  -1.3782  -1.3342  -1.3328  -1.2955  -1.2412  -1.2099  -1.1740
    -1.1594  -1.1414  -1.1175  -1.0697  -1.0407  -1.0300  -0.9737  -0.9594
    -0.9549  -0.9062  -0.8793  -0.8766  -0.8440  -0.8348  -0.7797  -0.7762
    -0.7429  -0.7338  -0.7073  -0.6996  -0.6664  -0.6356  -0.6308  -0.5910
    -0.5691  -0.5635  -0.5486  -0.5021  -0.5007  -0.4581  -0.4505  -0.4049
    -0.4003  -0.3291  -0.3147  -0.2747  -0.2566  -0.2513  -0.2380  -0.1949
    -0.1948  -0.1389  -0.1049   0.0178   0.1035   0.1659   0.1851   0.1875
     0.2305   0.2385   0.2583   0.2911   0.4003   0.4170   0.4843   0.5061
     0.5525   0.5712   0.5779   0.5998   0.6109   0.6419   0.6781   0.6990
     0.7988   0.8221   0.8290   0.8366   0.8506   0.9737   0.9804   1.0054
     1.0254   1.0448   1.0799   1.1269   1.1504   1.1878   1.2062   1.2318
     1.2423   1.2700   1.3247   1.3318   1.3606   1.4077   1.4093   1.4411
     1.4554   1.4954   1.5291   1.5824   1.5895   1.6383   1.6680   1.6949
     1.7132   1.7400   1.7429   1.7791   1.7803   1.8327   1.8491   1.8501
     1.8702   1.8787   1.9132   1.9315   1.9572   1.9885   2.0790   2.0887
     2.1270   2.1289   2.1442   2.1806   2.1891   2.2116   2.2355   2.2689
     2.3233   2.3374   2.4055   2.4596   2.5196   2.5627   2.6042   2.7901
     2.8947   3.1865   3.4592   3.7459   3.7876   3.8084   4.6819   4.8855
     5.2548   5.3829   5.8460   5.9208   6.0616   6.1444   6.5636   6.8245
     6.9479   7.1904   7.2518   7.2571

          k = 0.2000 0.1155 0.0000 ( 82740 PWs)   bands (ev):

   -17.1076  -6.5031  -5.2356  -4.7928  -4.4934  -4.4317  -4.2706  -4.1891
    -4.1831  -4.1048  -4.0249  -3.9741  -3.9392  -3.7897  -3.7392  -3.6271
    -3.6251  -3.5865  -3.5146  -3.4278  -3.3004  -3.1988  -3.1727  -3.1598
    -3.0970  -3.0731  -3.0394  -3.0156  -3.0057  -2.9514  -2.9367  -2.8818
    -2.8800  -2.8570  -2.8001  -2.7816  -2.7242  -2.6942  -2.6076  -2.5791
    -2.5476  -2.4830  -2.4387  -2.3281  -2.3033  -2.2496  -2.2337  -2.2257
    -2.1741  -2.1564  -2.0333  -2.0177  -1.9744  -1.9078  -1.8944  -1.8398
    -1.8315  -1.7717  -1.5968  -1.5299  -1.5018  -1.4778  -1.4631  -1.4246
    -1.3807  -1.3781  -1.3342  -1.3327  -1.2955  -1.2412  -1.2099  -1.1741
    -1.1594  -1.1414  -1.1176  -1.0695  -1.0406  -1.0299  -0.9738  -0.9594
    -0.9549  -0.9062  -0.8793  -0.8767  -0.8441  -0.8347  -0.7797  -0.7762
    -0.7429  -0.7338  -0.7073  -0.6995  -0.6665  -0.6356  -0.6307  -0.5910
    -0.5690  -0.5635  -0.5485  -0.5021  -0.5007  -0.4582  -0.4505  -0.4049
    -0.4004  -0.3292  -0.3147  -0.2747  -0.2566  -0.2512  -0.2381  -0.1949
    -0.1948  -0.1389  -0.1049   0.0177   0.1035   0.1659   0.1851   0.1876
     0.2306   0.2385   0.2583   0.2911   0.4004   0.4170   0.4843   0.5062
     0.5525   0.5712   0.5779   0.5997   0.6110   0.6419   0.6781   0.6991
     0.7988   0.8221   0.8290   0.8366   0.8506   0.9736   0.9804   1.0054
     1.0254   1.0448   1.0798   1.1269   1.1504   1.1877   1.2062   1.2318
     1.2423   1.2700   1.3247   1.3318   1.3605   1.4077   1.4093   1.4410
     1.4554   1.4954   1.5291   1.5824   1.5895   1.6383   1.6680   1.6949
     1.7133   1.7400   1.7429   1.7791   1.7803   1.8327   1.8491   1.8501
     1.8702   1.8787   1.9132   1.9315   1.9572   1.9885   2.0790   2.0887
     2.1270   2.1288   2.1442   2.1805   2.1891   2.2116   2.2355   2.2689
     2.3233   2.3374   2.4055   2.4596   2.5196   2.5627   2.6043   2.7901
     2.8946   3.1864   3.4592   3.7460   3.7877   3.8084   4.6819   4.8855
     5.2547   5.3829   5.8460   5.9208   6.0616   6.1444   6.5636   6.8245
     6.9479   7.1904   7.2519   7.2570

          k = 0.2000 0.3464 0.0000 ( 82740 PWs)   bands (ev):

   -17.1074  -6.2214  -5.0664  -5.0150  -4.9404  -4.3081  -4.2890  -3.9989
    -3.9187  -3.9122  -3.8891  -3.8419  -3.8381  -3.7845  -3.7664  -3.6990
    -3.6455  -3.4438  -3.3516  -3.3314  -3.3278  -3.3083  -3.2428  -3.2169
    -3.1205  -3.1078  -3.0880  -3.0087  -2.9854  -2.9763  -2.9527  -2.9053
    -2.8708  -2.8488  -2.8353  -2.7906  -2.7579  -2.7401  -2.6805  -2.4809
    -2.4421  -2.3669  -2.3498  -2.3032  -2.2943  -2.2767  -2.2562  -2.2048
    -2.1752  -2.1078  -2.0813  -2.0505  -2.0052  -1.9482  -1.8986  -1.8641
    -1.8583  -1.8033  -1.7666  -1.7271  -1.6269  -1.6078  -1.5663  -1.5196
    -1.5075  -1.4702  -1.4514  -1.4315  -1.3965  -1.3742  -1.2480  -1.2352
    -1.2159  -1.2129  -1.1985  -1.1527  -1.1051  -1.0784  -1.0455  -1.0135
    -0.9438  -0.9410  -0.9286  -0.9028  -0.8898  -0.8828  -0.8672  -0.8189
    -0.8084  -0.7855  -0.7623  -0.7327  -0.6746  -0.6610  -0.6346  -0.6114
    -0.6057  -0.5728  -0.5566  -0.5252  -0.5034  -0.4967  -0.4808  -0.4736
    -0.4588  -0.4162  -0.4026  -0.3533  -0.3134  -0.2668  -0.2152  -0.1795
    -0.1577  -0.1416  -0.0845  -0.0671   0.0175   0.0672   0.0723   0.1688
     0.2035   0.2167   0.2405   0.2762   0.3004   0.3291   0.3432   0.3627
     0.3772   0.4310   0.4724   0.5399   0.5793   0.6031   0.6372   0.6732
     0.7242   0.7433   0.7799   0.8330   0.8456   0.8935   0.9040   0.9294
     0.9457   0.9912   1.0512   1.0838   1.1186   1.1584   1.1721   1.1926
     1.1986   1.2111   1.2331   1.2423   1.2578   1.3333   1.3818   1.4174
     1.5124   1.5292   1.5735   1.6881   1.7159   1.7305   1.7474   1.7762
     1.8284   1.8675   1.8879   1.8996   1.9122   1.9272   1.9512   1.9666
     1.9817   2.0060   2.0385   2.0620   2.0892   2.1135   2.1533   2.1707
     2.1915   2.2329   2.3048   2.3549   2.3669   2.4020   2.4481   2.4945
     2.5187   2.5969   2.6250   2.8080   3.0207   3.1603   3.2236   3.3480
     3.6861   3.7296   3.9194   4.1058   4.4774   4.5308   4.6203   4.6732
     4.7415   5.3190   5.4738   5.8412   5.9335   6.0869   6.1775   6.5705
     6.6651   6.6727   6.7435   6.8916

          k = 0.2000-0.5774 0.0000 ( 82726 PWs)   bands (ev):

   -17.1073  -5.7137  -5.6771  -5.1054  -4.6192  -4.4559  -4.2309  -4.1018
    -3.9208  -3.8394  -3.7765  -3.7090  -3.6957  -3.6294  -3.6027  -3.5093
    -3.5037  -3.4127  -3.3934  -3.3724  -3.3584  -3.3383  -3.3124  -3.2575
    -3.1890  -3.1845  -3.1744  -3.1564  -3.1019  -3.0252  -2.9313  -2.9137
    -2.8752  -2.8252  -2.7805  -2.7612  -2.7115  -2.6947  -2.6271  -2.5635
    -2.5523  -2.3935  -2.3640  -2.3329  -2.2901  -2.2456  -2.2248  -2.1734
    -2.0904  -2.0458  -2.0011  -1.9765  -1.9501  -1.9181  -1.8859  -1.8556
    -1.8381  -1.7921  -1.7728  -1.7471  -1.7128  -1.7031  -1.6812  -1.6540
    -1.6116  -1.6079  -1.5367  -1.4706  -1.4460  -1.4298  -1.3740  -1.2930
    -1.2824  -1.2716  -1.2537  -1.2221  -1.1957  -1.1724  -1.1242  -1.1031
    -1.0637  -1.0222  -1.0100  -0.9920  -0.9091  -0.8818  -0.8741  -0.8609
    -0.8362  -0.7554  -0.7393  -0.7223  -0.6725  -0.6671  -0.6307  -0.6075
    -0.5902  -0.5765  -0.5610  -0.5323  -0.5209  -0.4946  -0.4731  -0.4538
    -0.4381  -0.4302  -0.4126  -0.3995  -0.3760  -0.3503  -0.3415  -0.1674
    -0.1405  -0.1230  -0.0822  -0.0110   0.0503   0.0991   0.1123   0.1383
     0.1640   0.1773   0.2013   0.2112   0.2361   0.2541   0.3020   0.3526
     0.4032   0.4345   0.4572   0.4773   0.4830   0.5381   0.5941   0.6543
     0.7010   0.7198   0.7773   0.8075   0.8295   0.8441   0.8762   0.8922
     0.9163   0.9468   0.9856   1.0082   1.0490   1.0824   1.1009   1.1160
     1.1717   1.1768   1.2200   1.2846   1.3502   1.4075   1.4463   1.5114
     1.5331   1.5642   1.5907   1.6566   1.6667   1.7118   1.7377   1.8005
     1.8443   1.8813   1.9057   1.9259   1.9477   1.9909   1.9982   2.0093
     2.0553   2.0759   2.0957   2.1382   2.1550   2.1718   2.1934   2.2312
     2.2563   2.3384   2.3628   2.3684   2.4165   2.4356   2.4566   2.5718
     2.6019   2.7676   3.0161   3.5239   3.5417   3.7881   3.7984   3.8444
     3.9291   4.0729   4.1601   4.4845   4.5503   4.5945   5.0044   5.0194
     5.1410   5.2168   5.2941   5.4104   5.5571   5.6434   5.7109   5.9295
     6.0853   6.4173   6.6005   6.6572

          k = 0.2000-0.3464 0.0000 ( 82740 PWs)   bands (ev):

   -17.1074  -6.2214  -5.0664  -5.0150  -4.9404  -4.3081  -4.2891  -3.9989
    -3.9187  -3.9122  -3.8891  -3.8418  -3.8381  -3.7845  -3.7664  -3.6990
    -3.6455  -3.4439  -3.3516  -3.3314  -3.3278  -3.3083  -3.2428  -3.2169
    -3.1205  -3.1078  -3.0880  -3.0086  -2.9854  -2.9763  -2.9527  -2.9052
    -2.8709  -2.8488  -2.8353  -2.7906  -2.7579  -2.7401  -2.6806  -2.4809
    -2.4421  -2.3669  -2.3498  -2.3032  -2.2943  -2.2767  -2.2562  -2.2048
    -2.1752  -2.1077  -2.0813  -2.0505  -2.0052  -1.9482  -1.8986  -1.8641
    -1.8583  -1.8033  -1.7666  -1.7271  -1.6268  -1.6078  -1.5663  -1.5196
    -1.5075  -1.4702  -1.4514  -1.4314  -1.3964  -1.3743  -1.2480  -1.2353
    -1.2160  -1.2130  -1.1985  -1.1527  -1.1051  -1.0785  -1.0456  -1.0135
    -0.9437  -0.9409  -0.9287  -0.9028  -0.8898  -0.8828  -0.8672  -0.8188
    -0.8085  -0.7855  -0.7623  -0.7328  -0.6746  -0.6610  -0.6346  -0.6114
    -0.6057  -0.5727  -0.5566  -0.5251  -0.5034  -0.4967  -0.4808  -0.4736
    -0.4588  -0.4162  -0.4026  -0.3533  -0.3135  -0.2668  -0.2153  -0.1795
    -0.1577  -0.1416  -0.0845  -0.0672   0.0174   0.0672   0.0723   0.1688
     0.2035   0.2167   0.2405   0.2762   0.3003   0.3291   0.3432   0.3627
     0.3771   0.4310   0.4725   0.5398   0.5793   0.6031   0.6371   0.6732
     0.7241   0.7433   0.7799   0.8330   0.8456   0.8935   0.9040   0.9294
     0.9457   0.9911   1.0513   1.0838   1.1187   1.1585   1.1721   1.1926
     1.1986   1.2111   1.2331   1.2423   1.2578   1.3333   1.3818   1.4173
     1.5124   1.5293   1.5735   1.6882   1.7158   1.7305   1.7474   1.7762
     1.8284   1.8675   1.8879   1.8996   1.9122   1.9273   1.9511   1.9665
     1.9817   2.0060   2.0385   2.0621   2.0892   2.1135   2.1533   2.1707
     2.1915   2.2328   2.3048   2.3550   2.3669   2.4021   2.4482   2.4945
     2.5187   2.5969   2.6250   2.8080   3.0207   3.1603   3.2236   3.3480
     3.6862   3.7297   3.9194   4.1058   4.4774   4.5308   4.6203   4.6732
     4.7416   5.3190   5.4738   5.8412   5.9336   6.0869   6.1775   6.5704
     6.6651   6.6727   6.7435   6.8916

          k = 0.4000-0.2309 0.0000 ( 82738 PWs)   bands (ev):

   -17.1074  -6.0864  -5.4641  -4.8666  -4.4971  -4.4817  -4.3256  -4.1028
    -4.0812  -3.9931  -3.8823  -3.7972  -3.7203  -3.6462  -3.6376  -3.5276
    -3.4747  -3.4523  -3.4291  -3.3753  -3.3616  -3.2917  -3.2686  -3.2388
    -3.2080  -3.1890  -3.1690  -3.1161  -3.0689  -3.0658  -2.8650  -2.8442
    -2.8193  -2.8058  -2.7828  -2.7364  -2.6333  -2.6122  -2.5715  -2.5703
    -2.5359  -2.4758  -2.3636  -2.3404  -2.2883  -2.2537  -2.2019  -2.1707
    -2.1593  -2.1297  -2.0807  -2.0761  -2.0605  -2.0458  -1.9368  -1.8919
    -1.8550  -1.8149  -1.7873  -1.7080  -1.6779  -1.6654  -1.6490  -1.5977
    -1.5005  -1.4638  -1.4453  -1.4269  -1.3839  -1.3377  -1.3120  -1.3040
    -1.2689  -1.1867  -1.1761  -1.1222  -1.0919  -1.0810  -1.0385  -1.0350
    -1.0010  -0.9700  -0.9531  -0.9361  -0.9212  -0.9181  -0.8984  -0.8910
    -0.8677  -0.7969  -0.7928  -0.7569  -0.7375  -0.7134  -0.6864  -0.6846
    -0.5966  -0.5911  -0.5497  -0.5133  -0.4931  -0.4670  -0.4642  -0.4394
    -0.4034  -0.3572  -0.3488  -0.2816  -0.2720  -0.2231  -0.2010  -0.1261
    -0.1074  -0.0409   0.0188   0.0469   0.0534   0.0942   0.1304   0.1376
     0.1606   0.1918   0.2361   0.2531   0.2697   0.2810   0.2905   0.3004
     0.3347   0.4137   0.4161   0.4393   0.4833   0.5158   0.5702   0.5965
     0.6700   0.7210   0.7223   0.7782   0.8376   0.8846   0.9311   0.9742
     1.0125   1.0385   1.0629   1.0808   1.1041   1.1121   1.1584   1.1697
     1.2004   1.2754   1.2912   1.3008   1.3570   1.3610   1.3765   1.3967
     1.4875   1.5443   1.5912   1.5920   1.6426   1.6779   1.7515   1.7573
     1.7661   1.7735   1.8033   1.8095   1.8903   1.8970   1.9099   1.9553
     2.0119   2.0537   2.0788   2.0890   2.0980   2.1306   2.1480   2.1603
     2.2479   2.2542   2.3258   2.3560   2.3578   2.4206   2.4262   2.5682
     2.6109   2.6809   3.0172   3.1657   3.2681   3.3658   3.4354   3.5152
     3.8181   3.9654   4.1222   4.2410   4.6222   4.6628   4.7649   4.8470
     4.8909   5.0740   5.1319   5.3506   5.3809   5.6973   6.0150   6.1537
     6.4681   6.7953   7.0030   7.1903

          k = 0.4000-0.0000 0.0000 ( 82740 PWs)   bands (ev):

   -17.1074  -6.2214  -5.0664  -5.0150  -4.9404  -4.3081  -4.2890  -3.9989
    -3.9187  -3.9121  -3.8891  -3.8419  -3.8381  -3.7845  -3.7664  -3.6990
    -3.6455  -3.4438  -3.3516  -3.3314  -3.3278  -3.3083  -3.2428  -3.2168
    -3.1205  -3.1078  -3.0880  -3.0087  -2.9854  -2.9763  -2.9527  -2.9053
    -2.8709  -2.8488  -2.8353  -2.7906  -2.7579  -2.7401  -2.6805  -2.4809
    -2.4421  -2.3669  -2.3498  -2.3033  -2.2943  -2.2767  -2.2562  -2.2048
    -2.1752  -2.1077  -2.0813  -2.0505  -2.0052  -1.9482  -1.8986  -1.8641
    -1.8583  -1.8033  -1.7666  -1.7271  -1.6269  -1.6078  -1.5663  -1.5196
    -1.5075  -1.4702  -1.4514  -1.4315  -1.3965  -1.3742  -1.2480  -1.2352
    -1.2159  -1.2129  -1.1985  -1.1527  -1.1051  -1.0784  -1.0455  -1.0135
    -0.9438  -0.9410  -0.9286  -0.9028  -0.8898  -0.8828  -0.8672  -0.8188
    -0.8084  -0.7855  -0.7623  -0.7327  -0.6746  -0.6610  -0.6346  -0.6114
    -0.6057  -0.5728  -0.5566  -0.5252  -0.5034  -0.4967  -0.4808  -0.4736
    -0.4588  -0.4162  -0.4026  -0.3533  -0.3134  -0.2668  -0.2153  -0.1795
    -0.1577  -0.1416  -0.0845  -0.0672   0.0175   0.0672   0.0723   0.1688
     0.2035   0.2167   0.2405   0.2762   0.3004   0.3291   0.3432   0.3627
     0.3772   0.4310   0.4724   0.5399   0.5793   0.6031   0.6372   0.6732
     0.7242   0.7434   0.7799   0.8330   0.8456   0.8935   0.9040   0.9294
     0.9457   0.9912   1.0512   1.0838   1.1186   1.1584   1.1721   1.1926
     1.1986   1.2111   1.2331   1.2423   1.2578   1.3333   1.3818   1.4174
     1.5124   1.5292   1.5735   1.6881   1.7159   1.7305   1.7474   1.7762
     1.8284   1.8675   1.8879   1.8996   1.9122   1.9272   1.9512   1.9665
     1.9817   2.0060   2.0385   2.0620   2.0892   2.1135   2.1533   2.1706
     2.1915   2.2329   2.3048   2.3549   2.3669   2.4020   2.4481   2.4945
     2.5187   2.5969   2.6250   2.8080   3.0207   3.1604   3.2236   3.3480
     3.6861   3.7296   3.9194   4.1058   4.4774   4.5308   4.6203   4.6732
     4.7415   5.3190   5.4738   5.8412   5.9335   6.0869   6.1775   6.5705
     6.6651   6.6726   6.7435   6.8916

          k = 0.4000 0.2309 0.0000 ( 82738 PWs)   bands (ev):

   -17.1074  -6.0864  -5.4641  -4.8666  -4.4971  -4.4817  -4.3257  -4.1027
    -4.0811  -3.9931  -3.8823  -3.7972  -3.7203  -3.6462  -3.6377  -3.5276
    -3.4746  -3.4523  -3.4291  -3.3752  -3.3615  -3.2917  -3.2686  -3.2388
    -3.2080  -3.1890  -3.1690  -3.1161  -3.0689  -3.0659  -2.8650  -2.8442
    -2.8193  -2.8058  -2.7828  -2.7364  -2.6334  -2.6122  -2.5715  -2.5702
    -2.5359  -2.4758  -2.3636  -2.3404  -2.2883  -2.2537  -2.2019  -2.1707
    -2.1592  -2.1297  -2.0807  -2.0761  -2.0605  -2.0458  -1.9368  -1.8919
    -1.8550  -1.8149  -1.7874  -1.7080  -1.6780  -1.6654  -1.6491  -1.5977
    -1.5005  -1.4638  -1.4452  -1.4269  -1.3839  -1.3377  -1.3121  -1.3040
    -1.2688  -1.1866  -1.1760  -1.1222  -1.0918  -1.0811  -1.0386  -1.0350
    -1.0010  -0.9700  -0.9531  -0.9361  -0.9212  -0.9180  -0.8983  -0.8910
    -0.8678  -0.7969  -0.7928  -0.7569  -0.7376  -0.7133  -0.6864  -0.6846
    -0.5966  -0.5910  -0.5496  -0.5133  -0.4931  -0.4669  -0.4642  -0.4394
    -0.4034  -0.3572  -0.3488  -0.2816  -0.2720  -0.2231  -0.2010  -0.1261
    -0.1073  -0.0409   0.0188   0.0469   0.0534   0.0941   0.1304   0.1376
     0.1605   0.1918   0.2361   0.2532   0.2697   0.2810   0.2905   0.3004
     0.3347   0.4138   0.4161   0.4393   0.4833   0.5158   0.5703   0.5965
     0.6700   0.7210   0.7224   0.7782   0.8376   0.8845   0.9311   0.9742
     1.0126   1.0385   1.0629   1.0807   1.1041   1.1120   1.1583   1.1697
     1.2004   1.2754   1.2912   1.3008   1.3570   1.3609   1.3765   1.3967
     1.4875   1.5444   1.5912   1.5920   1.6426   1.6778   1.7515   1.7573
     1.7661   1.7735   1.8034   1.8096   1.8903   1.8970   1.9099   1.9553
     2.0120   2.0537   2.0788   2.0890   2.0980   2.1306   2.1480   2.1603
     2.2478   2.2542   2.3258   2.3559   2.3578   2.4206   2.4262   2.5682
     2.6109   2.6809   3.0171   3.1657   3.2682   3.3658   3.4354   3.5152
     3.8181   3.9654   4.1222   4.2409   4.6223   4.6628   4.7649   4.8471
     4.8909   5.0740   5.1318   5.3506   5.3809   5.6973   6.0151   6.1536
     6.4682   6.7953   7.0030   7.1903

          k = 0.4000-0.6928 0.0000 ( 82726 PWs)   bands (ev):

   -17.1073  -5.7137  -5.6771  -5.1054  -4.6193  -4.4559  -4.2308  -4.1019
    -3.9208  -3.8394  -3.7765  -3.7090  -3.6957  -3.6294  -3.6027  -3.5093
    -3.5037  -3.4128  -3.3934  -3.3724  -3.3584  -3.3383  -3.3124  -3.2574
    -3.1890  -3.1845  -3.1744  -3.1564  -3.1019  -3.0252  -2.9313  -2.9137
    -2.8752  -2.8251  -2.7805  -2.7612  -2.7115  -2.6947  -2.6271  -2.5635
    -2.5524  -2.3935  -2.3639  -2.3329  -2.2901  -2.2456  -2.2248  -2.1734
    -2.0903  -2.0457  -2.0011  -1.9764  -1.9501  -1.9181  -1.8860  -1.8556
    -1.8382  -1.7921  -1.7728  -1.7472  -1.7129  -1.7031  -1.6812  -1.6540
    -1.6116  -1.6080  -1.5367  -1.4706  -1.4460  -1.4298  -1.3740  -1.2931
    -1.2823  -1.2716  -1.2537  -1.2220  -1.1956  -1.1724  -1.1242  -1.1031
    -1.0637  -1.0222  -1.0100  -0.9920  -0.9091  -0.8818  -0.8741  -0.8609
    -0.8363  -0.7553  -0.7394  -0.7224  -0.6725  -0.6671  -0.6307  -0.6075
    -0.5902  -0.5764  -0.5610  -0.5323  -0.5209  -0.4945  -0.4730  -0.4538
    -0.4382  -0.4302  -0.4125  -0.3995  -0.3760  -0.3503  -0.3415  -0.1674
    -0.1405  -0.1230  -0.0821  -0.0110   0.0503   0.0990   0.1123   0.1384
     0.1640   0.1773   0.2013   0.2112   0.2362   0.2541   0.3020   0.3527
     0.4032   0.4345   0.4572   0.4773   0.4830   0.5381   0.5941   0.6543
     0.7010   0.7198   0.7773   0.8075   0.8295   0.8441   0.8762   0.8922
     0.9163   0.9468   0.9856   1.0081   1.0490   1.0824   1.1009   1.1160
     1.1717   1.1768   1.2200   1.2846   1.3502   1.4076   1.4462   1.5114
     1.5331   1.5642   1.5907   1.6566   1.6667   1.7118   1.7377   1.8005
     1.8443   1.8813   1.9057   1.9260   1.9477   1.9908   1.9982   2.0093
     2.0553   2.0759   2.0957   2.1383   2.1550   2.1718   2.1934   2.2312
     2.2563   2.3384   2.3627   2.3684   2.4165   2.4356   2.4566   2.5718
     2.6019   2.7676   3.0160   3.5239   3.5417   3.7881   3.7984   3.8444
     3.9291   4.0730   4.1601   4.4844   4.5503   4.5945   5.0044   5.0194
     5.1410   5.2168   5.2939   5.4103   5.5571   5.6435   5.7109   5.9295
     6.0854   6.4173   6.6005   6.6574

          k = 0.4000-0.4619 0.0000 ( 82726 PWs)   bands (ev):

   -17.1073  -5.7137  -5.6771  -5.1054  -4.6192  -4.4559  -4.2309  -4.1018
    -3.9208  -3.8394  -3.7765  -3.7090  -3.6957  -3.6294  -3.6027  -3.5093
    -3.5037  -3.4127  -3.3934  -3.3724  -3.3584  -3.3383  -3.3124  -3.2574
    -3.1890  -3.1846  -3.1744  -3.1564  -3.1019  -3.0252  -2.9313  -2.9137
    -2.8752  -2.8252  -2.7805  -2.7612  -2.7115  -2.6947  -2.6271  -2.5635
    -2.5523  -2.3935  -2.3640  -2.3329  -2.2901  -2.2456  -2.2248  -2.1734
    -2.0904  -2.0458  -2.0011  -1.9765  -1.9501  -1.9181  -1.8859  -1.8556
    -1.8381  -1.7921  -1.7728  -1.7471  -1.7128  -1.7031  -1.6812  -1.6540
    -1.6116  -1.6080  -1.5367  -1.4706  -1.4460  -1.4298  -1.3740  -1.2930
    -1.2824  -1.2716  -1.2537  -1.2221  -1.1957  -1.1724  -1.1242  -1.1031
    -1.0637  -1.0222  -1.0100  -0.9920  -0.9091  -0.8818  -0.8741  -0.8609
    -0.8362  -0.7554  -0.7394  -0.7223  -0.6725  -0.6671  -0.6307  -0.6075
    -0.5903  -0.5765  -0.5610  -0.5323  -0.5209  -0.4945  -0.4731  -0.4538
    -0.4381  -0.4302  -0.4126  -0.3995  -0.3760  -0.3503  -0.3415  -0.1674
    -0.1406  -0.1230  -0.0822  -0.0110   0.0502   0.0991   0.1123   0.1383
     0.1640   0.1773   0.2013   0.2112   0.2361   0.2541   0.3020   0.3526
     0.4032   0.4345   0.4572   0.4773   0.4830   0.5381   0.5941   0.6543
     0.7010   0.7198   0.7773   0.8075   0.8295   0.8441   0.8762   0.8922
     0.9163   0.9468   0.9856   1.0082   1.0490   1.0824   1.1009   1.1160
     1.1717   1.1768   1.2200   1.2846   1.3502   1.4075   1.4463   1.5114
     1.5331   1.5642   1.5908   1.6566   1.6667   1.7118   1.7377   1.8005
     1.8443   1.8813   1.9057   1.9260   1.9477   1.9909   1.9982   2.0093
     2.0553   2.0759   2.0957   2.1382   2.1550   2.1718   2.1934   2.2312
     2.2563   2.3384   2.3628   2.3684   2.4165   2.4356   2.4566   2.5718
     2.6019   2.7676   3.0161   3.5239   3.5417   3.7881   3.7984   3.8444
     3.9291   4.0729   4.1601   4.4845   4.5503   4.5945   5.0044   5.0194
     5.1410   5.2168   5.2941   5.4103   5.5571   5.6434   5.7109   5.9295
     6.0853   6.4173   6.6005   6.6573

     the Fermi energy is     2.1519 ev

!    total energy              =  -27796.70107900 Ry

     total all-electron energy =  -1326792.313395 Ry
     estimated scf accuracy    <       0.00000030 Ry
     smearing contrib. (-TS)   =       0.00366241 Ry
     internal energy E=F+TS    =  -27796.70474141 Ry

     The total energy is F=E-TS. E is the sum of the following terms:
     one-electron contribution =  -23214.39068062 Ry
     hartree contribution      =   11912.08270052 Ry
     xc contribution           =    -897.67882274 Ry
     ewald contribution        =    9887.41877247 Ry
     one-center paw contrib.   =  -25484.13671104 Ry

     convergence has been achieved in  17 iterations

     negative rho (up, down):  1.255E-02 0.000E+00

     Forces acting on atoms (cartesian axes, Ry/au):

     atom    1 type  1   force =    -0.00014013   -0.00007714   -0.00306195
     atom    2 type  1   force =     0.00014382   -0.00007963   -0.00304215
     atom    3 type  1   force =     0.00000326    0.00036776   -0.00423797
     atom    4 type  1   force =     0.00000510    0.00016301   -0.00303744
     atom    5 type  1   force =     0.00068953    0.00040008   -0.00412939
     atom    6 type  1   force =    -0.00068941    0.00039559   -0.00413780
     atom    7 type  1   force =     0.00031980   -0.00018610   -0.00424965
     atom    8 type  1   force =    -0.00000032   -0.00080008   -0.00414409
     atom    9 type  1   force =    -0.00030780   -0.00018393   -0.00424564
     atom   10 type  1   force =     0.00000151    0.00000431    0.00588619
     atom   11 type  1   force =     0.00063143   -0.00188252    0.00263012
     atom   12 type  1   force =    -0.00065570   -0.00188327    0.00262035
     atom   13 type  1   force =    -0.00131570    0.00148762    0.00263193
     atom   14 type  1   force =    -0.00000610   -0.00000838   -0.00069722
     atom   15 type  1   force =     0.00131007    0.00149685    0.00262989
     atom   16 type  1   force =    -0.00195703    0.00037905    0.00261905
     atom   17 type  1   force =     0.00195413    0.00038749    0.00263397
     atom   18 type  1   force =    -0.00000267    0.00000063    0.00992845
     atom   19 type  1   force =    -0.00014080    0.00008525    0.00033167
     atom   20 type  1   force =     0.00013518    0.00009299    0.00029060
     atom   21 type  1   force =     0.00001784   -0.00055473   -0.00047483
     atom   22 type  1   force =    -0.00001406   -0.00013584    0.00072922
     atom   23 type  1   force =    -0.00048480    0.00029186   -0.00046505
     atom   24 type  1   force =     0.00050824    0.00028658   -0.00046465
     atom   25 type  1   force =     0.00010914    0.00006029    0.00070561
     atom   26 type  1   force =    -0.00000156   -0.00016451    0.00033699
     atom   27 type  1   force =    -0.00011864    0.00004803    0.00072225
     atom   28 type  1   force =     0.00220349    0.00126521    0.00128692
     atom   29 type  1   force =    -0.00221281    0.00125881    0.00129595
     atom   30 type  1   force =    -0.00000860    0.00019079    0.00010901
     atom   31 type  1   force =    -0.00000665   -0.00253080    0.00128299
     atom   32 type  1   force =    -0.00053100   -0.00029953    0.00057440
     atom   33 type  1   force =     0.00053535   -0.00031033    0.00055757
     atom   34 type  1   force =     0.00016667   -0.00010303    0.00010128
     atom   35 type  1   force =    -0.00000215    0.00062640    0.00055799
     atom   36 type  1   force =    -0.00015614   -0.00008710    0.00009937
     atom   37 type  2   force =     0.00001749   -0.00000168   -0.00417396

     Total force =     0.006899     Total SCF correction =     0.001370
     SCF correction compared to forces is large: reduce conv_thr to get better values

     negative rho (up, down):  1.255E-02 0.000E+00

     negative rho (up, down):  1.255E-02 0.000E+00

     negative rho (up, down):  1.255E-02 0.000E+00

     negative rho (up, down):  1.255E-02 0.000E+00

     negative rho (up, down):  1.255E-02 0.000E+00

     negative rho (up, down):  1.255E-02 0.000E+00

     negative rho (up, down):  1.255E-02 0.000E+00

     negative rho (up, down):  1.255E-02 0.000E+00

     negative rho (up, down):  1.255E-02 0.000E+00

     negative rho (up, down):  1.255E-02 0.000E+00

     negative rho (up, down):  1.255E-02 0.000E+00

     negative rho (up, down):  1.255E-02 0.000E+00

     negative rho (up, down):  1.255E-02 0.000E+00

     negative rho (up, down):  1.255E-02 0.000E+00

     negative rho (up, down):  1.255E-02 0.000E+00

     negative rho (up, down):  1.255E-02 0.000E+00

     negative rho (up, down):  1.255E-02 0.000E+00

     negative rho (up, down):  1.255E-02 0.000E+00

     negative rho (up, down):  1.255E-02 0.000E+00

     negative rho (up, down):  1.255E-02 0.000E+00

     negative rho (up, down):  1.255E-02 0.000E+00

     negative rho (up, down):  1.255E-02 0.000E+00

     negative rho (up, down):  1.255E-02 0.000E+00

     negative rho (up, down):  1.255E-02 0.000E+00

     negative rho (up, down):  1.255E-02 0.000E+00

     negative rho (up, down):  1.255E-02 0.000E+00

     negative rho (up, down):  1.255E-02 0.000E+00

     negative rho (up, down):  1.255E-02 0.000E+00

     negative rho (up, down):  1.255E-02 0.000E+00

     negative rho (up, down):  1.255E-02 0.000E+00

     negative rho (up, down):  1.255E-02 0.000E+00

     negative rho (up, down):  1.255E-02 0.000E+00

     negative rho (up, down):  1.255E-02 0.000E+00

     negative rho (up, down):  1.255E-02 0.000E+00
 BEEFens 2000 ensemble energies
             -0.600116092473282E+02
             -0.357917005133100E+01
             -0.157040195653910E+02
              0.424677830409981E+02
             -0.219058454031601E+02
             -0.203793092425835E+02
             -0.347300389677727E+02
             -0.854838068409208E+02
             -0.462084550217853E+02
             -0.469290000499452E+02
             -0.365360425708793E+02
              0.219902877478075E+01
              0.403093248608806E+01
              0.769871719271148E+01
              0.261227587547879E+01
              0.470122108836971E+02
             -0.206959390249127E+02
             -0.229693520763238E+02
              0.190432431668938E+02
             -0.111271811341592E+03
              0.530390775328102E+02
             -0.288009712683005E+02
             -0.326908692028912E+01
             -0.113268324416614E+02
             -0.889526804279001E+01
             -0.462018703324111E+01
              0.874022796686488E+02
             -0.184234902231679E+02
             -0.894094697205389E+01
             -0.512600245583025E+02
              0.809144238308822E+02
             -0.187315349197706E+02
             -0.370698912388818E+02
              0.247666967767711E+02
             -0.280824516934348E+01
              0.160661097719011E+02
             -0.490078563170005E+01
              0.108463421653927E+02
              0.283978813440576E+02
             -0.102295323594393E+03
              0.552788024984313E+02
              0.141171548580034E+02
             -0.156252908452433E+01
             -0.358659701222799E+02
              0.121977639986434E+02
             -0.144540988041739E+02
              0.392974247382699E+02
              0.361421570566047E+02
             -0.306561328416954E+02
             -0.271785958393773E+02
             -0.325104320071198E+02
             -0.348356614894866E+02
              0.133766597768260E+02
             -0.485555586865210E+02
              0.113746829859991E+02
              0.616958670282671E+02
              0.627234416821624E+02
              0.352677496318046E+02
              0.152651058194583E+02
              0.266963280277655E+02
              0.882201343997881E+02
              0.211321412206604E+02
             -0.542993892253063E+02
             -0.156427269788040E+02
             -0.232809839017293E+02
              0.623525385629819E+02
             -0.766520880723302E+02
             -0.665807144651028E+02
             -0.255613931006864E+02
             -0.623472619497966E+01
             -0.467361967671744E+02
              0.267963665971675E+02
              0.787650314942687E+01
              0.850400835901826E+01
             -0.393269326167795E+02
             -0.343130838169309E+02
             -0.535701078509541E+02
              0.387368464334802E+02
             -0.292210568988539E+02
              0.261792178876193E+02
             -0.706178781158224E+01
             -0.315329990438933E+02
             -0.571411172012248E+02
             -0.175155135130494E+02
             -0.887028452631193E+01
             -0.123342887569936E+02
              0.408373078572186E+02
              0.674374866569657E+02
             -0.380828814660834E+02
             -0.786571964498907E+02
             -0.217886742767901E+02
              0.110416645511874E+03
             -0.586635696956765E+02
              0.353081638900118E+02
             -0.943953117834553E+01
             -0.657579205931669E+02
              0.251801291828982E+02
              0.395423461783927E+02
             -0.197141116085308E+02
              0.397568150593279E+02
             -0.293694877326570E+02
             -0.471461050221825E+02
              0.855230256168272E+02
              0.449316432189136E+02
              0.334589192700191E+02
              0.145121041623389E+02
              0.202905604004319E+02
              0.848418707521184E+02
             -0.254181492752397E+02
              0.785325349371045E+01
             -0.141029099173327E+03
              0.179620517599134E+02
             -0.709647201984400E+02
              0.149621215500900E+02
              0.202348513147095E+02
             -0.328925400274790E+02
             -0.552237719093318E+02
              0.652105420379849E+01
             -0.300948553100020E+02
              0.303135431974601E+02
             -0.525277148357002E+02
              0.181670544437418E+01
             -0.353107270082002E+02
             -0.419513211737313E+01
             -0.110737473634816E+01
              0.178384056713402E+02
              0.143086033084853E+01
             -0.647099080768373E+01
              0.583270137084960E+02
              0.898800184557471E+02
              0.479002969741470E+02
              0.824270208321933E+02
             -0.113866331018498E+02
              0.142177716953267E+02
              0.535894182337345E+02
             -0.111783462665706E+02
             -0.727872506102676E+02
             -0.379247952458055E+02
             -0.516759493194812E+02
             -0.273689055547957E+02
              0.324697620036451E+02
             -0.115535740181428E+03
             -0.185932885749925E+02
              0.409106640236264E+02
             -0.382273704635230E+02
             -0.362532120850747E+02
              0.537937745508343E+02
              0.395839134726368E+02
             -0.351145752369679E+02
              0.133861983855334E+02
             -0.270569303197848E+02
              0.339273568621244E+02
              0.440290853560026E+01
              0.210474989631357E+02
             -0.876605532630750E+02
             -0.475450493541962E+02
             -0.986712227917155E+01
              0.326805119339323E+01
             -0.362287920447976E+02
              0.104882922718765E+03
             -0.229936235636374E+02
             -0.396092830039250E+02
              0.384999577093472E+02
             -0.489858279558936E+02
             -0.359315229140210E+02
              0.321468961249741E+02
              0.123134604154952E+02
              0.163485745582250E+02
              0.114626346129914E+02
             -0.131775592757361E+02
              0.224483984896730E+02
              0.584495259657485E+02
             -0.309078279743078E+02
              0.160221822757555E+02
              0.925500900729548E+02
              0.337404710604623E+02
             -0.725758204389933E+01
             -0.186191096307883E+02
              0.151755107679849E+03
             -0.161303219754620E+02
              0.359135252298376E+02
              0.191060912589011E+02
              0.359175038086830E+02
              0.882694761750430E+02
              0.538306015782410E+02
             -0.234636174711608E+01
              0.224909597914962E+02
              0.479372928671662E+02
              0.359371233462425E+02
             -0.519174561456199E+02
              0.926414119883118E+02
             -0.816949002174717E+02
             -0.197197742514007E+02
              0.577219949653249E+02
              0.653523822225235E+01
              0.783589445826533E+01
              0.338394101792369E+02
              0.297754591478329E+02
              0.350353645462522E+02
             -0.631292512936568E+02
              0.285040895104260E+01
             -0.295268294919088E+02
             -0.864974718145970E+01
             -0.141256566251548E+01
             -0.706805316613642E+01
             -0.407470194686499E+01
              0.851020458675389E+02
             -0.100701184267371E+02
             -0.273417802225236E+02
             -0.496382690067956E+01
              0.138418964824866E+02
             -0.557244823150152E+02
             -0.401055602644930E+02
             -0.378729924557173E+02
             -0.623629768356650E+02
             -0.167586377740032E+02
             -0.443421997260092E+02
              0.161555878648350E+02
             -0.243391792276249E+01
             -0.103053731518048E+02
             -0.926425632607541E+01
              0.803737926807423E+01
             -0.241974950484785E+02
              0.682669837731209E+02
             -0.798037254203430E+02
             -0.139607231437201E+02
             -0.172856155173224E+02
              0.180560502452097E+02
              0.211851215369507E+02
             -0.458463684881876E+02
             -0.200830505122536E+02
              0.436327211917637E+02
             -0.274363749390037E+02
              0.185446564105808E+02
              0.379632070984441E+02
             -0.320674966006311E+01
              0.112960636294162E+03
             -0.229300069628432E+02
             -0.337647151825573E+02
              0.578668776037432E+01
             -0.225227913073657E+02
              0.521866534889215E+02
             -0.332083328975785E+02
              0.105122476476353E+02
              0.635763435965595E+02
             -0.125102649683863E+02
              0.119017865311747E+03
              0.124551532294318E+03
             -0.642622527690021E+02
              0.584649577095455E+02
              0.163894806768022E+02
             -0.511918221158472E+02
              0.214697349246485E+02
              0.349204820018167E+02
              0.357677529200696E+02
              0.130712837028346E+01
              0.157820305446347E+02
              0.687878098067162E+02
             -0.244590334825219E+02
              0.180423648273127E+02
              0.732340301595975E+02
             -0.368971217311941E+02
             -0.126829477976536E+02
              0.502283415263599E+02
              0.294201306475774E+02
              0.772653061518319E+02
              0.219068778602623E+02
              0.609066554930877E+01
              0.277980263413832E+02
              0.378859813921194E+02
             -0.465966897617531E+02
              0.321578537765129E+01
              0.126464343099455E+02
              0.112243150277006E+02
              0.217946880722882E+02
             -0.568388761387307E+02
              0.362915409177563E+02
             -0.439456725396037E+02
             -0.344196094467659E+02
              0.175806841052494E+02
             -0.180867631561609E+02
              0.548614884411001E+02
             -0.255077674261161E+02
              0.263662502692783E+02
              0.365309913907197E+02
              0.821376013095624E+02
              0.569418723208286E+02
              0.456482182381118E+02
             -0.105907083534472E+02
             -0.376649085710216E+01
             -0.329122713363186E+02
              0.742072853990976E+02
              0.788698536441015E+02
              0.357679662457919E+02
             -0.188859504002937E+02
              0.506832268103256E+02
             -0.163234026364710E+02
              0.213418416767679E+02
              0.607249806930358E+02
              0.215534313364427E+01
             -0.103383980644652E+02
             -0.281183665201863E+02
             -0.504928510342792E+02
              0.935326273328844E+02
              0.434145047768205E+02
             -0.552176189555509E+02
             -0.937919002802849E+01
              0.247471390834649E+02
             -0.988278637245381E+01
              0.585196827902903E+02
              0.150679137884439E+02
              0.790858056641476E+02
              0.276132965559673E+02
             -0.261734447200076E+02
              0.247245531052271E+02
             -0.495560358254858E+01
             -0.321243014382591E+02
              0.131588994571441E+02
              0.204332656432024E+02
              0.923439021321039E+02
              0.789592398185788E+02
              0.545103170115872E+02
              0.724199370646329E+02
              0.794532503047608E+01
             -0.271122886741400E+02
              0.161711752367064E+02
             -0.364837409700421E+02
             -0.470230489631951E+02
             -0.557866658698213E+02
             -0.263339349427102E+02
             -0.108614324894151E+03
             -0.287401927323963E+02
             -0.828239305830334E+02
              0.207768917581052E+02
             -0.472554993097563E+02
              0.391474285046449E+02
             -0.930985102030990E+02
             -0.326941836296868E+02
              0.545020100973136E+02
              0.205371695754999E+02
             -0.821076371189443E+02
              0.625797914906869E+02
             -0.253778717251213E+02
              0.506858751159295E+02
             -0.240089403893095E+02
             -0.743102478378642E+02
              0.110354862767612E+02
             -0.604519684043242E+02
             -0.168215533921730E+02
             -0.146507841659603E+01
              0.414200007537988E+02
              0.125720830430705E+03
             -0.457454634287415E+02
             -0.358776619357727E+02
             -0.922836649429655E+00
             -0.129654539031677E+02
             -0.814300811619487E+02
             -0.591248547664810E+02
              0.512271501686759E+02
             -0.287323822475664E+02
              0.166631183701958E+02
             -0.484453762296422E+02
             -0.130174432055075E+02
             -0.433201426308721E+02
              0.560616154506332E+02
              0.149946036272888E+02
             -0.229070330996361E+02
             -0.124869198840643E+02
              0.652840276784346E+01
             -0.612984211543153E+01
              0.437521626626935E+02
             -0.249468782681440E+02
              0.262455755397832E+01
              0.335697601111294E+02
              0.170203244340739E+02
             -0.157157985717558E+02
              0.154696197306627E+03
              0.531695312900684E+02
              0.104311054504781E+01
              0.161198709702131E+02
             -0.608583290289979E+02
              0.311633627662827E+02
             -0.713547615621049E+02
             -0.248505625983529E+02
             -0.516416067050933E+02
             -0.218171116705740E+02
              0.562987027296703E+02
             -0.531089774175190E+02
              0.157914881077666E+02
             -0.402926231901563E+01
              0.387154018766986E+01
             -0.430885549572999E+02
             -0.474215961980585E+02
             -0.393613337161321E+01
             -0.421974801864154E+02
             -0.214896059567341E+02
             -0.434257602807782E+02
             -0.118847530119192E+02
             -0.355733824893058E+02
             -0.511584893230803E+02
              0.210833451368897E+02
             -0.208319712701470E+02
              0.185357656631229E+02
              0.967669147154700E+01
             -0.730228547682006E+02
             -0.543111811601020E+02
             -0.392783774716004E+02
              0.351178010018543E+02
              0.279747822725756E+01
             -0.620612842489434E+02
              0.579814119017346E+02
             -0.396729015121536E+02
              0.538427863939184E+02
             -0.286310327337335E+02
             -0.441123304950965E+02
              0.296158136161955E+02
             -0.650154886395589E+02
             -0.376722587889122E+02
              0.667176527423856E+02
              0.201898129811149E+02
             -0.355314145661266E+02
              0.483785893164880E+02
             -0.172371815614674E+02
             -0.318861779274545E+02
             -0.298828617054789E+02
             -0.495366665131950E+02
              0.246755272098161E+02
             -0.924259011658904E+02
             -0.832655759555872E+02
             -0.725308784462266E+01
             -0.303867568032596E+02
             -0.569515297263896E+02
              0.713978323719516E+02
              0.130117328216894E+03
             -0.359001678342801E+02
             -0.250029555118988E+01
             -0.631157632359779E+02
              0.643717578225663E+02
              0.168477614861979E+02
             -0.179413496039506E+02
             -0.406434073878481E+02
              0.147133115008070E+02
             -0.580116995804781E+02
             -0.196566892150151E+02
             -0.896154647206654E+02
              0.333426310114521E+02
              0.168152011641392E+02
              0.191097937092627E+01
             -0.691730099772758E+01
             -0.325114353504769E+02
             -0.743874288167353E+01
              0.124107759337251E+03
             -0.197475862943438E+02
             -0.432254909214477E+02
             -0.676827301661951E+02
              0.107729906035486E+02
             -0.338028081859861E+02
              0.578683545287791E+01
              0.257973320780060E+02
              0.101682989357470E+02
              0.274145884672009E+02
              0.117916163319924E+02
              0.623630765191182E+02
              0.314450894961070E+02
             -0.322633782843980E+02
              0.349517300046436E+02
              0.376198641124397E+02
              0.119703487864166E+02
              0.483450374755239E+02
             -0.221199603993408E+02
              0.758632946272069E+02
              0.169592437571622E+02
             -0.268561484381116E+02
             -0.718658094779564E+01
             -0.184605925034556E+02
              0.260462096524670E+02
             -0.232009565089953E+02
              0.204693483616438E-01
             -0.836152678127632E+01
              0.801353228006998E+02
              0.494134120544980E+02
             -0.680990935560892E+02
             -0.467488976747595E+01
             -0.550716099590493E+02
             -0.158313209998062E+02
             -0.266311222536910E+02
              0.362841821007805E+01
              0.614300655643234E+00
             -0.254635829402825E+02
              0.795389194056281E+01
             -0.593271243944497E+01
             -0.128121299911137E+02
              0.850035818710518E+02
              0.180352588758314E+02
             -0.798181482882259E+02
             -0.454597392559022E+02
              0.934959892471654E+02
              0.275345774781076E+02
             -0.106030645790538E+02
              0.103428014978259E+03
             -0.193391854903176E+02
             -0.122329996009869E+02
             -0.526536115386807E+01
              0.105827882912626E+02
              0.268737188524856E+02
              0.779383922814728E+01
              0.302606939406278E+02
             -0.186933995153616E+02
             -0.299362193423241E+02
             -0.413591729096610E+02
             -0.472036274344584E+02
              0.459983242071226E+02
              0.125455881946459E+02
              0.383764499159777E+02
              0.131854347768946E+02
              0.846351068542781E+02
              0.154248024736557E+02
             -0.838098751957641E+02
             -0.331202222193076E+02
              0.133694046451445E+02
             -0.300138791263024E+02
              0.619991799493989E+02
             -0.869181022728480E+01
              0.146985897506790E+02
              0.491525961675028E+02
             -0.698865320333266E+02
              0.148251832357333E+03
              0.206814195340059E+02
              0.268920384469942E+02
              0.343664093143046E+02
              0.103556946678927E+02
             -0.155945883500408E+01
              0.355359554795160E+02
             -0.353539993539177E+02
              0.764083776255735E+02
              0.676971479348277E+02
             -0.401986647827749E+02
              0.147943001985974E+02
              0.662723290257228E+02
             -0.221828728079648E+02
              0.152084696709163E+02
              0.432010636238324E+02
              0.418176667215101E+02
             -0.777222988030942E+02
             -0.152202748347806E+02
             -0.353621300917715E+02
             -0.142220461537607E+01
             -0.760432982692264E+01
             -0.555047145227741E+01
             -0.179654326749360E+02
             -0.290551799686725E+02
              0.615391653675873E+01
              0.111178033609846E+02
              0.530262893940036E+02
             -0.385367924059108E+02
              0.369380489901133E+02
              0.433393705624385E+02
             -0.185963067715811E+02
              0.864635609314614E+02
             -0.690976297075535E+02
             -0.102117270737177E+03
             -0.648798159395795E+01
             -0.261111096779416E+01
              0.388338968719347E+01
              0.781382205229939E+02
             -0.107115930499628E+02
              0.412313301915153E+02
              0.437393781657411E+02
              0.381372641930268E+02
             -0.987605702190399E+01
              0.621816657677641E+02
             -0.131944849782499E+02
             -0.303289206086693E+02
             -0.476223632774043E+02
              0.576771881468950E+01
              0.366360044184665E+02
             -0.599953722638043E+01
              0.389803195340683E+02
             -0.173920994441576E+01
              0.649737739721643E+02
              0.185840608741779E+02
              0.990032687433028E+01
             -0.122206094330023E+02
              0.329257097575956E+02
              0.358390904246216E+02
              0.231343610548864E+02
             -0.479419034436035E+00
             -0.544980751426013E+02
              0.257473046039243E+02
              0.172961665298620E+02
              0.399503343146048E+02
              0.269118965221533E+02
              0.368733749751129E+02
             -0.595778494767566E+01
              0.247337213922011E+02
             -0.295631474137181E+02
             -0.195650692141567E+01
             -0.563980193095196E+02
             -0.304379067213550E+02
              0.374391739556381E+02
             -0.926773617697210E+02
              0.292123532514558E+02
              0.182646429838582E+02
              0.831264488657294E+02
             -0.299669243699046E+02
              0.326045816197051E+02
             -0.136654142454601E+02
             -0.458879849315933E+02
             -0.755221741432941E+02
             -0.508562619525985E+01
             -0.850669852632943E+02
              0.199168052170762E+02
             -0.245337500754800E+02
              0.302384653967105E+02
              0.234345219465127E+02
             -0.238026957978503E+02
             -0.262239124253033E+02
              0.386741374840208E+02
             -0.582260087618575E+02
             -0.115118705695643E+02
             -0.194389465336066E+02
              0.209857939108421E+02
             -0.899882570057821E+01
              0.357323995718852E+01
             -0.199227983187369E+02
              0.553216438539126E+02
             -0.433187842565764E+02
              0.781115316792170E+01
              0.579036424745433E+02
             -0.319430995008691E+02
              0.355430364519066E+01
             -0.886249259582462E+01
             -0.663001555391822E+02
             -0.479021369460797E+02
             -0.860647177644615E+01
              0.237482333984308E+02
              0.298642146385919E+02
              0.856162256982572E+01
             -0.400544652647568E+01
              0.150193227422860E+02
             -0.436065859167747E+02
              0.339120709554732E+01
             -0.525868904441983E+02
             -0.322067942885306E+02
              0.469503945327359E+02
             -0.291993891924233E+02
              0.615145845137839E+02
             -0.212276617526873E+02
              0.350460325955080E+02
              0.239149922303445E+02
             -0.638066214988861E+02
             -0.278004453640338E+02
              0.921444074280120E+01
             -0.367201992862002E+02
             -0.335620648484940E+02
             -0.820733222117046E+02
             -0.533799231354700E+02
             -0.505394895995558E+02
             -0.410868097289047E+02
             -0.991222074486501E+00
              0.969384074465663E+01
              0.904422406424544E+00
              0.150180711957675E+02
             -0.543394781999283E+02
              0.140395233585526E+02
              0.253648049545212E+02
             -0.659919157734612E+02
             -0.696340713101798E+02
             -0.427290838305422E+02
             -0.168287034400979E+02
              0.177141858797229E+02
              0.459291797601259E+01
             -0.421806565148831E+02
              0.363524054254406E+02
             -0.213780591505607E+02
              0.512285410341851E+02
             -0.878107354946055E+02
              0.590920462910305E+02
             -0.198379872933597E+01
             -0.364103320012747E+02
             -0.213552432323099E+02
              0.471415438974134E+01
              0.369466857830156E+02
             -0.749230746822189E+02
             -0.119407791004453E+02
             -0.214991165947669E+02
              0.507034165281522E+02
              0.856613346814684E+02
             -0.954949675093065E+02
              0.934845730066694E+02
              0.463991180225487E+02
             -0.717753251643915E+02
             -0.363445003726505E+02
              0.743924113705375E+02
              0.626411568374779E+02
             -0.179022573022424E+02
             -0.457471415564191E+01
              0.712762445578555E+01
              0.641051186993437E+02
             -0.502302591951497E+02
              0.157156638002938E+02
             -0.463106266105464E+01
              0.345294965943900E+02
             -0.739807352587722E+02
             -0.645136038179815E+01
             -0.348588450180578E+02
              0.455715773449060E+02
              0.464981418552862E+02
             -0.852698840546028E+02
             -0.482169723484384E+02
             -0.254264970701250E+02
             -0.334719346904277E+02
             -0.108019140441068E+02
             -0.241253944605543E+02
              0.422885629699586E+02
              0.396801294157979E+02
             -0.564995056222460E+01
             -0.411559707911459E+02
             -0.841631823229094E+02
              0.437967150320912E+02
             -0.518776885501140E+02
             -0.309113676612579E+02
              0.539569961586733E+01
             -0.318582270501162E+02
             -0.393695300937655E+02
             -0.236997961478249E+02
             -0.380080492406927E+02
             -0.268368887613062E+02
             -0.477571218080710E+02
              0.558411311649343E+02
              0.632388791736695E+02
             -0.159380361429066E+01
             -0.259177993226943E+02
             -0.631335155699071E+01
              0.437036815703674E+02
             -0.859420494756113E+02
             -0.143775625122770E+02
              0.518917299841544E+02
              0.656101880802435E+02
             -0.243863202573526E+02
              0.904581749100680E+01
              0.518107202268926E+02
              0.196727953676368E+02
             -0.830715317195194E+01
             -0.449168106880684E+02
              0.279159755763501E+02
             -0.349309912826638E+02
             -0.164268813990873E+02
             -0.150669183217630E+02
             -0.198859239594078E+02
              0.192290627458256E+02
              0.792502149660880E+02
              0.195356525164897E+01
              0.533405255455429E+01
             -0.878176201881962E+02
             -0.174094573890241E+02
             -0.349013226873487E+02
              0.277499949573132E+01
             -0.404767487882041E+02
              0.721124867659526E+02
              0.775863221210974E+02
              0.122136367917254E+02
             -0.139051635977785E+02
              0.142039269415505E+02
              0.258484834349154E+02
             -0.477237037011204E+02
             -0.862921331485904E+01
              0.135894554764233E+02
              0.163464053948229E+02
              0.558242884716715E+02
              0.417788796833825E+02
             -0.195821612584792E+02
              0.329067293367170E+02
             -0.958465700301127E+02
             -0.535492107520923E+00
              0.838522565986768E+02
              0.895228281721677E+01
              0.145004734565612E+01
              0.332659323316846E+02
             -0.295718881627751E+02
              0.950055893501871E+02
             -0.118515390588332E+02
              0.862037868583940E+02
              0.376492433707146E+02
             -0.388278398314623E+02
              0.311514710639697E+02
             -0.330831923215179E+02
             -0.711578354168920E+02
             -0.647554245897499E+01
             -0.536956675822201E+02
             -0.542751785867822E+02
             -0.680463491334589E+01
              0.291409724758449E+02
             -0.492236666667114E+01
             -0.356913077325528E+02
              0.113876799125958E+02
             -0.731280255563007E+02
             -0.100676563150666E+02
             -0.820594090956745E+02
              0.483590621660310E+02
              0.210677818182427E+01
             -0.479344174837053E+02
             -0.229082683163586E+02
              0.210632446087068E+02
             -0.297168085145500E+02
             -0.451086323227302E+02
              0.898705567900080E+02
             -0.195738476899157E+02
             -0.466943627008679E+02
              0.246452993712578E+02
             -0.103092311988572E+02
              0.480709986433791E+02
             -0.317499695614151E+01
              0.123351236853434E+02
              0.100566127996908E+03
             -0.199543637220187E+02
             -0.335005969544735E+02
             -0.305678499621706E+02
             -0.529229535588906E+02
             -0.321323325459234E+02
              0.227443656919537E+02
              0.203439381241361E+02
              0.184265705994878E+02
              0.734293442998593E+02
              0.143131653717717E+00
              0.178453098759382E+02
[...]
              0.281455575146238E+02
              0.140421549127514E+03
              0.239176225252553E+02
              0.120701523545927E+02
             -0.459629034081157E+02
             -0.631793927998698E+02
             -0.187715729137250E+02
              0.326693350815355E+02
             -0.421258667213954E+01
              0.187080268793458E+02
              0.332419855026525E+02
             -0.580319044059895E+02
              0.219605510213429E+02
              0.579005277011821E+02
              0.547262445405403E+02
             -0.409359915868936E+01
             -0.143880680069435E+01
             -0.987864170887721E+01
             -0.477936701199126E+02
             -0.667488693876118E+02
              0.777753534757230E+02
             -0.511758234043333E+01
             -0.582404382456984E+02
              0.160478306469639E+01
             -0.202107342316427E+02
              0.929816830821645E+02
             -0.214007696215880E+02
             -0.349600115370159E+02
              0.331347421543139E+02
             -0.143991754576257E+02
              0.384743052621191E+02
             -0.241473325827860E+01
              0.100145488229420E+03
              0.483923095448965E+02
             -0.527392252382341E+01
             -0.317713877917462E+02
              0.229259658335275E+02
             -0.522838883035236E+02
             -0.127469646834794E+02
              0.579093804668543E+02
             -0.285017472228609E+02
             -0.433894855465524E+02
             -0.220774276164311E+02
              0.513433338000912E+02
              0.123653773502096E+02
             -0.840685862582316E+02
              0.300512001277789E+02
              0.151501692797189E+02
              0.564791958901489E+01
             -0.508493822660947E+02
             -0.388102526210457E+01
              0.319563082081788E+02
              0.508355927547109E+02
              0.625573579360149E+02
              0.225248446713998E+02
              0.677876328689507E+00
             -0.492214821559205E+02
             -0.505703062185258E+02
             -0.741482562916569E+02
             -0.597286246006138E+01
              0.305445175275256E+02
             -0.381891246407494E+01
              0.541507466594040E+02
             -0.314623147259144E+02
              0.164635801606980E+02
             -0.100125452595672E+02
             -0.286693509626808E+02
              0.579540932383187E+02
              0.787694851203020E+01
              0.597543009835076E+02
              0.503747962192438E+01
              0.263123851773718E+02
             -0.190943158487470E+02
              0.579870876053938E+02
             -0.109604290158958E+02
             -0.133201219829033E+00
             -0.782044194826414E+02
             -0.127775206386698E+02
              0.712012346829616E+02
              0.666771868775127E+02
              0.248937388793255E+02
             -0.128571659334292E+02
              0.336354028884574E+01
             -0.170902396815485E+02
             -0.182471074269091E+01
              0.898318718331739E+02
              0.115851500599945E+01
             -0.187134866248733E+02
             -0.109661535720622E+03
             -0.548518144355844E+02
             -0.371002346116376E+02
             -0.652279720673059E+02
             -0.549301280208736E+02
             -0.675392558958882E+02
             -0.442346454740406E+02
             -0.408136477823119E+02
             -0.446794671747205E+02
              0.478978632811120E+02
             -0.292638435167082E+02
             -0.987352735897490E+02
              0.414718829314272E+02
             -0.256417287360804E+02
             -0.782578368972324E+02
              0.933507246125917E+02
             -0.217014552803470E+02
              0.226673763157489E+02
              0.451539045996575E+02
             -0.150178355210210E+01
              0.251481952850091E+02
              0.470451351460574E+01
              0.407018810519762E+00
             -0.149242008343229E+02
             -0.707957932182123E+02
              0.132201906485987E+02
             -0.128166764514928E+03
              0.616398560757366E+02
             -0.436380694393049E+02
             -0.160824260936012E+02
             -0.155817696501473E+02
              0.689066104274284E+01
             -0.226218027832112E+02
              0.294317446161281E+02
             -0.514281924497677E+02
              0.363638012735945E+02
              0.366317975723033E+02
              0.167720798579408E+02
              0.995791970974255E+01
              0.195577488425277E+02
              0.608979521045472E+01
              0.307419223157838E+02
             -0.796020911659673E+01
             -0.584073160974921E+02
              0.747947205683107E+01
             -0.148886513874909E+02
             -0.189242279159623E+01
              0.500208698058198E+02
             -0.818756920845092E+02
             -0.153164383224902E+01
              0.523452517148201E+00
              0.985712337131980E+01
              0.315257193250682E+02
             -0.122318539709428E+02
              0.827033357781492E+02
              0.484295129909864E+02
             -0.181833662622622E+02
             -0.949110790470758E+01
              0.990275570375019E+00
              0.761536868359071E+02
             -0.581244325388269E+02
             -0.104733723918284E+03
              0.306320419353409E+02
             -0.162062566819580E+02
             -0.137919775351475E+02
              0.128402783328104E+02
              0.760708986639165E+02
              0.459827370404542E+02
             -0.151701291018152E+02
             -0.497277031392434E+02
             -0.534935108055319E+01
              0.303566898365597E+02
             -0.109613001786950E+02
             -0.747759227018951E+02
             -0.259285243352278E+01
             -0.879502484874078E+02
             -0.470053483841030E+02
              0.759070751001350E+02
             -0.478012454219526E+02
             -0.628866754690667E+02
             -0.508936455406310E+02
             -0.345447148461643E+02
              0.337428939800441E+02
              0.812663537734952E+02
             -0.344271559791940E+01
              0.273750328359237E+02
             -0.181532723306491E+02
             -0.686686018922460E+02
              0.459725874873100E+02
             -0.439807165741146E+02
              0.319440614937203E+02
              0.373330876182284E+02
             -0.637596154142733E+01
              0.386897865106077E+02
              0.434482955165746E+02
              0.993657947842547E+02
             -0.155237192432610E+02
             -0.449738528365933E+02
             -0.605782312651943E+02
             -0.121679721617392E+02
             -0.228327882748338E+02
              0.102067647168770E+03
             -0.444368533012353E+02
              0.104068372019576E+02
              0.971235989380278E+01
             -0.262636312226879E+02
             -0.789517008580021E+02
             -0.692771603432180E+01
              0.969309783970112E+02
              0.913542472605312E+01
              0.802458285025335E+01
             -0.520498864098664E+02
             -0.599564027703652E+02
             -0.542496486829987E+01
              0.495593165472511E+02
             -0.219135309206939E+02
              0.106925350731619E+03
             -0.430436807727652E+02
              0.144214397073219E+02
             -0.222920777173357E+02
             -0.711978871016655E+02
              0.160013560848097E+01
             -0.495676359633242E+02
             -0.752864194194563E+02
              0.601961459349224E+01
              0.234183305179536E+01
              0.508957967428375E+02
              0.184284454255153E+02
             -0.319834691831663E+02
              0.227842074981477E+02
             -0.801355362424114E+02
             -0.516849818875012E+02
              0.892044026328517E+02
              0.142048912856747E+02
             -0.187829618417331E+02
             -0.349910924085838E+02
             -0.268257603837833E+01
             -0.573052543455981E+01
              0.820307522262724E+02
              0.413372203303396E+02
             -0.165367802355108E+02
             -0.122295159679737E+02
             -0.423820453989464E+02
             -0.199452766025248E+02
             -0.663536933423662E+02
              0.454220478521841E+02
              0.539502741750863E+01
              0.144189878346502E+02
              0.153924285200885E+02
             -0.407100602908919E+00
             -0.165973439684224E+02
             -0.321799149209820E+01
             -0.992319925808458E+02
             -0.228792956920523E+02
             -0.753508211549877E+01
             -0.941921710700080E+01
              0.541411393949503E+02
              0.616885558468573E+02
              0.162916809114478E+02
             -0.960840189287167E+02
              0.640816878265044E+02
             -0.212556757074233E+02
             -0.373018259708091E+02
             -0.854915994753247E+02
             -0.384450828659304E+02
              0.557559189809640E+02
              0.240610165756092E+02
              0.497064102578219E+01
              0.288481700315721E+02
             -0.559082237888925E+02
             -0.416942290568559E+02
              0.508588013708437E+02
              0.382818031623751E+02
              0.513970225697350E+02
             -0.134968744410315E+01
              0.672808801572143E+01
              0.563956764115280E+02
              0.952255059962974E+02
             -0.298560591791445E+02
              0.318335374000576E+02
             -0.114975909807732E+02
             -0.407590346625107E+02
             -0.310483548250326E+02
             -0.296479849913219E+02
             -0.129798983343962E+02
             -0.518284508337604E+02
             -0.215327569967397E+02
             -0.139809240006949E+03
              0.365803872633152E+02
              0.203719946223168E+02
             -0.389674409820493E+01
             -0.375977983731223E+02
             -0.202246937200680E+02
             -0.520674161409481E+02
              0.150789657255712E+02
              0.811700712487036E+02
             -0.250394341338317E+02
             -0.160920005643999E+02
              0.235778691235510E+02
             -0.484022931180844E+02
              0.871600414410873E+02
              0.152847122139352E+02
              0.225885751828400E+02
              0.484721887803150E+02
              0.328830171555825E+01
              0.535842240970562E+02
              0.140771471951246E+02
             -0.106481572344993E+02
              0.716252680749611E+01
              0.913745806908537E+00
              0.720456421199727E+02
              0.100369552618133E+02
              0.118096160432124E+02
             -0.129175962204702E+02
              0.131291639274030E+02
             -0.901300456316593E+02
             -0.322097496808855E+02
             -0.452088695381723E+02
              0.480048169920545E+02
             -0.287350484715364E+02
             -0.652847584082965E+02
              0.531837521006361E+02
             -0.120717915874807E+02
              0.435711427966973E+02
             -0.889316622213739E+02
              0.230268780152179E+02
              0.853420069462189E+01
              0.573590246410674E+01
             -0.817470597962227E+01
             -0.895878365001499E+01
              0.474263280118856E+02
              0.198249916549577E+01
             -0.469101550417549E+02
             -0.173852489659516E+02
              0.274835055873335E+02
             -0.116724268713155E+03
             -0.920647189531138E+02
              0.397314882958199E+01
              0.115753329972742E+02
             -0.407624789806329E+02
             -0.390834181517317E+01
              0.111051333477437E+03
              0.303481515370545E+02
             -0.565938104815715E+02
              0.916776914478140E+01
             -0.952455280804161E+01
              0.104260063580487E+02
             -0.333629061436435E+02
              0.192857846920992E+02
              0.282057364512198E+02
             -0.289128935461054E+01
              0.106962034078994E+03
             -0.140142050999677E+02
             -0.312758727260102E+02
              0.139403921640123E+02
              0.462289832586371E+02
             -0.352661280116334E+02
             -0.315935107585771E+01
              0.954436147565492E+02
             -0.465807787060101E+01
              0.616076488732964E+02
              0.133662467988279E+02
             -0.895852790672481E+01
             -0.303754537762453E+02
              0.561572699579985E+02
             -0.507825994101097E+02
             -0.220365390370722E+01
             -0.167934249890947E+02
             -0.401015336157501E+02
              0.183602448631929E+02
              0.236452750495108E+02
              0.116318239021466E+02
              0.747906943198132E+00
             -0.379821048668718E+02
              0.213859450698568E+02
             -0.675039559413952E+01
             -0.244268681434094E+02
             -0.208520975228874E+02
              0.201839021276334E+02
             -0.597433256885415E+01
             -0.345043776606176E+02
             -0.105479083802581E+03
              0.102059721275278E+02
              0.247519881363768E+02
             -0.381847355416290E+02
             -0.208244076653812E+02
              0.798192191630965E+02
              0.635730503734504E+01
              0.305778295896466E+02
              0.376426783198485E+01
              0.317459677401113E+02
              0.644826454118629E+01
             -0.368703351966972E+02
             -0.217118187360782E+01
              0.870233262130574E+01
              0.270414368928967E+02
              0.774114720196797E+02
              0.502268540299554E+02
              0.137101997529157E+00
              0.167817026589721E+02
              0.606757319985505E+02
              0.232731402219473E+02
             -0.745752123317779E+02
             -0.270863715705809E+02
              0.150114131755439E+02
              0.550331822051282E+01
              0.252236525635971E+02
             -0.542544770698055E+02
              0.893308722029755E+01
              0.381350705107570E+02
              0.492849264063322E+02
             -0.430377706269764E+02
             -0.695831285362863E+01
             -0.204138743018103E+01
             -0.131570249039901E+02
             -0.362968771849632E+02
             -0.214051790958439E+02
             -0.185955892410439E+01
              0.780457796444603E+01
              0.416890228026018E+02
             -0.304656971935553E+02
              0.817635189510928E+02
              0.323740616819138E+02
              0.216784456531034E+02
              0.329044344105778E+02
              0.320785394062181E+02
              0.342241557752474E+02
              0.531336581912682E+02
             -0.428880201427263E+02
              0.612893997209966E+02
             -0.111051745998437E+03
              0.304172709112439E+02
             -0.105419972090232E+03
              0.846186487181205E+02
              0.682261983960231E+02
             -0.108961928629138E+02
             -0.488468779646006E+02
             -0.424984206110029E+02
             -0.617986957196591E+02
             -0.621691813264869E+02
              0.545828846735989E+02
              0.400934707187513E+02
              0.234190055879768E+02
              0.371464532299484E+02
              0.398093322837388E+02
             -0.377782544204831E+02
             -0.196371055931486E+02
              0.580903077608355E+02
             -0.114724575670373E+02
              0.546523377852051E+02
              0.690994847726282E+02
             -0.549828069261980E+01
             -0.698203048122597E+02
             -0.974908750150917E+00
             -0.248393873527835E+01
             -0.871042524382187E+01
             -0.183534861261688E+01
             -0.646274689018746E+02
             -0.210181608706374E+02
              0.523873946546529E+01
              0.882193613278767E+01
              0.463445449598977E+02
             -0.393176510221051E+02
              0.652507030209515E+02
             -0.421290951546353E+02
              0.207334164100988E+02
              0.345673616159478E+02
 
 BEEF-vdW xc energy contributions
           1 :   -775.557928401646     
           2 :    713.197655940517     
           3 :   -604.921283173944     
           4 :    477.020245368995     
           5 :   -356.519333749123     
           6 :    263.100787581057     
           7 :   -204.528587649343     
           8 :    176.525732033742     
           9 :   -166.674843338962     
          10 :    160.476648430226     
          11 :   -147.090629229824     
          12 :    122.598798326426     
          13 :   -89.9361459141810     
          14 :    56.0656249661088     
          15 :   -28.0238213518827     
          16 :    9.64193137170957     
          17 :  -0.222337453503542     
          18 :   -4.55428705780662     
          19 :    10.1709057582877     
          20 :   -20.5643358830238     
          21 :    36.4152313898433     
          22 :   -55.1174785269792     
          23 :    72.2717746243471     
          24 :   -83.8898812783300     
          25 :    88.2227597787893     
          26 :   -86.3980843831843     
          27 :    81.6687321187002     
          28 :   -77.7329211665879     
          29 :    76.9731515314626     
          30 :   -79.4474766594681     
          31 :   -84.7752716814239     
          32 :   -65.0988494016220     

     Writing output data file ./pwscf.save/
 
     init_run     :    271.83s CPU    275.75s WALL (       1 calls)
     electrons    :   9635.02s CPU   9734.59s WALL (       1 calls)
     forces       :     85.76s CPU     86.82s WALL (       1 calls)

     Called by init_run:
     wfcinit      :    224.29s CPU    227.36s WALL (       1 calls)
     potinit      :     45.04s CPU     45.30s WALL (       1 calls)
     hinit0       :      0.93s CPU      0.95s WALL (       1 calls)

     Called by electrons:
     c_bands      :   8056.82s CPU   8134.97s WALL (      18 calls)
     sum_band     :   1046.03s CPU   1055.51s WALL (      18 calls)
     v_of_rho     :    105.34s CPU    108.43s WALL (      18 calls)
     newd         :     23.33s CPU     32.28s WALL (      18 calls)
     PAW_pot      :    124.01s CPU    124.01s WALL (      18 calls)
     mix_rho      :    325.22s CPU    325.83s WALL (      18 calls)
     vdW_kernel   :     33.88s CPU     33.88s WALL (       1 calls)

     Called by c_bands:
     init_us_2    :     61.77s CPU     62.00s WALL (     494 calls)
     cegterg      :   7396.72s CPU   7474.63s WALL (     234 calls)

     Called by *egterg:
     cdiaghg      :     75.35s CPU     75.37s WALL (    1089 calls)
     h_psi        :   4607.53s CPU   4634.52s WALL (    1115 calls)
     s_psi        :    831.91s CPU    831.94s WALL (    1115 calls)
     g_psi        :     14.33s CPU     14.33s WALL (     868 calls)

     Called by h_psi:
     h_psi:calbec :    783.01s CPU    783.10s WALL (    1115 calls)
     vloc_psi     :   2969.62s CPU   2970.36s WALL (    1115 calls)
     add_vuspsi   :    832.20s CPU    832.29s WALL (    1115 calls)

     General routines
     calbec       :   1151.70s CPU   1151.81s WALL (    1401 calls)
     fft          :     39.79s CPU     39.80s WALL (    3098 calls)
     ffts         :     99.03s CPU     99.05s WALL (    8812 calls)
     fftw         :   3045.17s CPU   3045.56s WALL (  304476 calls)
 
     Parallel routines
 
     PWSCF        :      2h48m CPU      2h50m WALL

 
   This run was terminated on:  18:45:36  20Dec2022            

=------------------------------------------------------------------------------=
   JOB DONE.
=------------------------------------------------------------------------------=
