
     Program PWSCF v.6.7MaX starts on 21Dec2022 at  9:30:35 

     This program is part of the open-source Quantum ESPRESSO suite
     for quantum simulation of materials; please cite
         "P. Giannozzi et al., J. Phys.:Condens. Matter 21 395502 (2009);
         "P. Giannozzi et al., J. Phys.:Condens. Matter 29 465901 (2017);
          URL http://www.quantum-espresso.org", 
     in publications or presentations arising from this work. More details at
     http://www.quantum-espresso.org/quote

     Parallel version (MPI), running on     1 processors

     MPI processes distributed on     1 nodes
     Reading input from o2-ensemble.in
Warning: card &CELL ignored
Warning: card / ignored

     Current dimensions of program PWSCF are:
     Max number of different atomic species (ntypx) = 10
     Max number of k-points (npk) =  40000
     Max angular momentum in pseudopotentials (lmaxx) =  3
     file Pt.pbe-n-kjpaw_psl.1.0.0.UPF: wavefunction(s)  6S 5D renormalized
     file O.pbe-nl-kjpaw_psl.1.0.0.UPF: wavefunction(s)  2S 2P renormalized

     **************************************************************************
     Initializing libbeef V0.1.2 with the BEEF-vdW functional.
     Citation: Wellendorff et al., PRB 85, 235149 (2012).
     **************************************************************************


     IMPORTANT: XC functional enforced from input :
     Exchange-correlation= BEEF-VDW
                           (   1   4  43  14   2   0   0)
     Any further DFT definition will be discarded
     Please, verify this is what you really want


     Subspace diagonalization in iterative solution of the eigenvalue problem:
     a serial algorithm will be used

 
     G-vector sticks info
     --------------------
     sticks:   dense  smooth     PW     G-vecs:    dense   smooth      PW
     Sum        4267    4267   1159               681991   681991   96023
 


     bravais-lattice index     =            0
     lattice parameter (alat)  =      16.0349  a.u.
     unit-cell volume          =   10855.1232 (a.u.)^3
     number of atoms/cell      =           38
     number of atomic types    =            2
     number of electrons       =       372.00
     number of Kohn-Sham states=          223
     kinetic-energy cutoff     =      60.0000  Ry
     charge density cutoff     =     240.0000  Ry
     scf convergence threshold =      1.0E-06
     mixing beta               =       0.7000
     number of iterations used =            8  local-TF  mixing
     Exchange-correlation= BEEF-VDW
                           (   1   4  43  14   2   0   0)

     celldm(1)=  16.034858  celldm(2)=   0.000000  celldm(3)=   0.000000
     celldm(4)=   0.000000  celldm(5)=   0.000000  celldm(6)=   0.000000

     crystal axes: (cart. coord. in units of alat)
               a(1) = (   1.000000   0.000000   0.000000 )  
               a(2) = (   0.500000   0.866025   0.000000 )  
               a(3) = (   0.000000   0.000000   3.040246 )  

     reciprocal axes: (cart. coord. in units 2 pi/alat)
               b(1) = (  1.000000 -0.577350  0.000000 )  
               b(2) = (  0.000000  1.154701  0.000000 )  
               b(3) = (  0.000000  0.000000  0.328921 )  


     PseudoPot. # 1 for Pt read from file:
     /users/bkreitz1/quantum-espresso/potentials/Pt.pbe-n-kjpaw_psl.1.0.0.UPF
     MD5 check sum: 04dc8a03c51ece93fc7b5889c2958091
     Pseudo is Projector augmented-wave + core cor, Zval = 10.0
     Generated using 'atomic' code by A. Dal Corso  v.6.7MaX
     Shape of augmentation charge: PSQ
     Using radial grid of 1277 points,  6 beta functions with: 
                l(1) =   0
                l(2) =   0
                l(3) =   1
                l(4) =   1
                l(5) =   2
                l(6) =   2
     Q(r) pseudized with 0 coefficients 


     PseudoPot. # 2 for O  read from file:
     /users/bkreitz1/quantum-espresso/potentials/O.pbe-nl-kjpaw_psl.1.0.0.UPF
     MD5 check sum: eef08af8b58d9ec80f8fdb78829eb7cf
     Pseudo is Projector augmented-wave + core cor, Zval =  6.0
     Generated using 'atomic' code by A. Dal Corso  v.6.7MaX
     Shape of augmentation charge: PSQ
     Using radial grid of 1095 points,  4 beta functions with: 
                l(1) =   0
                l(2) =   0
                l(3) =   1
                l(4) =   1
     Q(r) pseudized with 0 coefficients 


     atomic species   valence    mass     pseudopotential
        Pt            10.00   195.08400     Pt( 1.00)
        O              6.00    15.99900     O ( 1.00)

     No symmetry found



   Cartesian axes

     site n.     atom                  positions (alat units)
         1           Pt  tau(   1) = (   0.0000000   0.0000000   1.0017346  )
         2           Pt  tau(   2) = (   0.3333333   0.0000000   1.0017346  )
         3           Pt  tau(   3) = (   0.6666667   0.0000000   1.0017346  )
         4           Pt  tau(   4) = (   0.1666667   0.2886751   1.0017346  )
         5           Pt  tau(   5) = (   0.5000000   0.2886751   1.0017346  )
         6           Pt  tau(   6) = (   0.8333333   0.2886751   1.0017346  )
         7           Pt  tau(   7) = (   0.3333333   0.5773503   1.0017346  )
         8           Pt  tau(   8) = (   0.6666667   0.5773503   1.0017346  )
         9           Pt  tau(   9) = (   1.0000000   0.5773503   1.0017346  )
        10           Pt  tau(  10) = (   0.1666667   0.0962250   1.2739001  )
        11           Pt  tau(  11) = (   0.5000000   0.0962250   1.2739001  )
        12           Pt  tau(  12) = (   0.8333333   0.0962250   1.2739001  )
        13           Pt  tau(  13) = (   0.3333333   0.3849002   1.2739001  )
        14           Pt  tau(  14) = (   0.6666667   0.3849002   1.2739001  )
        15           Pt  tau(  15) = (   1.0000000   0.3849002   1.2739001  )
        16           Pt  tau(  16) = (   0.5000000   0.6735753   1.2739001  )
        17           Pt  tau(  17) = (   0.8333333   0.6735753   1.2739001  )
        18           Pt  tau(  18) = (   1.1666667   0.6735753   1.2739001  )
        19           Pt  tau(  19) = (   0.0006580   0.1918031   1.5409428  )
        20           Pt  tau(  20) = (   0.3340336   0.1920049   1.5430151  )
        21           Pt  tau(  21) = (   0.6669909   0.1926427   1.5407022  )
        22           Pt  tau(  22) = (   0.1669740   0.4813144   1.5406096  )
        23           Pt  tau(  23) = (   0.4995535   0.4780649   1.5476167  )
        24           Pt  tau(  24) = (   0.8331030   0.4820254   1.5409410  )
        25           Pt  tau(  25) = (   0.3304568   0.7709412   1.5475965  )
        26           Pt  tau(  26) = (   0.6690308   0.7711580   1.5465951  )
        27           Pt  tau(  27) = (   0.9999560   0.7706335   1.5430187  )
        28           Pt  tau(  28) = (  -0.0001200   0.0005161   1.8186665  )
        29           Pt  tau(  29) = (   0.3228006  -0.0060429   1.8196772  )
        30           Pt  tau(  30) = (   0.6760383   0.0011395   1.8192418  )
        31           Pt  tau(  31) = (   0.1680464   0.2911027   1.8127904  )
        32           Pt  tau(  32) = (   0.5056537   0.2963195   1.8192359  )
        33           Pt  tau(  33) = (   0.8398881   0.2924860   1.8118867  )
        34           Pt  tau(  34) = (   0.3341155   0.5778486   1.8190048  )
        35           Pt  tau(  35) = (   0.6670490   0.5770436   1.8186774  )
        36           Pt  tau(  36) = (   1.0027601   0.5773965   1.8128143  )
        37           O   tau(  37) = (   0.4082264   0.0435541   2.0410016  )
        38           O   tau(  38) = (   0.5479181   0.1241746   2.0124164  )

     number of k points=    13  Marzari-Vanderbilt smearing, width (Ry)=  0.0200
                       cart. coord. in units 2pi/alat
        k(    1) = (   0.0000000   0.0000000   0.0000000), wk =   0.0800000
        k(    2) = (   0.0000000   0.2309401   0.0000000), wk =   0.1600000
        k(    3) = (   0.0000000   0.4618802   0.0000000), wk =   0.1600000
        k(    4) = (   0.2000000  -0.1154701   0.0000000), wk =   0.1600000
        k(    5) = (   0.2000000   0.1154701   0.0000000), wk =   0.1600000
        k(    6) = (   0.2000000   0.3464102   0.0000000), wk =   0.1600000
        k(    7) = (   0.2000000  -0.5773503   0.0000000), wk =   0.1600000
        k(    8) = (   0.2000000  -0.3464102   0.0000000), wk =   0.1600000
        k(    9) = (   0.4000000  -0.2309401   0.0000000), wk =   0.1600000
        k(   10) = (   0.4000000  -0.0000000   0.0000000), wk =   0.1600000
        k(   11) = (   0.4000000   0.2309401   0.0000000), wk =   0.1600000
        k(   12) = (   0.4000000  -0.6928203   0.0000000), wk =   0.1600000
        k(   13) = (   0.4000000  -0.4618802   0.0000000), wk =   0.1600000

     Dense  grid:   681991 G-vectors     FFT dimensions: (  80,  80, 243)

     Estimated max dynamical RAM per process >       8.18 GB

     Initial potential from superposition of free atoms

     starting charge  371.99389, renormalised to  372.00000

     negative rho (up, down):  1.280E-02 0.000E+00


     %%%%%%%%%%%%%%%%%%%%%%%%%%%%%%%%%%%%%%%%%%%%%%%%%%%%%%%%%%%%%%%%%%%%%%%%
     %                                                                      %
     % You are using vdW-DF, which was implemented by the Thonhauser group. %
     % Please cite the following two papers that made this development      %
     % possible and the two reviews that describe the various versions:     %
     %                                                                      %
     %   T. Thonhauser et al., PRL 115, 136402 (2015).                      %
     %   T. Thonhauser et al., PRB 76, 125112 (2007).                       %
     %   K. Berland et al., Rep. Prog. Phys. 78, 066501 (2015).             %
     %   D.C. Langreth et al., J. Phys.: Condens. Matter 21, 084203 (2009). %
     %                                                                      %
     %                                                                      %
     % If you are calculating the stress with vdW-DF, please also cite:     %
     %                                                                      %
     %   R. Sabatini et al., J. Phys.: Condens. Matter 24, 424209 (2012).   %
     %                                                                      %
     %%%%%%%%%%%%%%%%%%%%%%%%%%%%%%%%%%%%%%%%%%%%%%%%%%%%%%%%%%%%%%%%%%%%%%%%


     Starting wfcs are  332 randomized atomic wfcs
     Checking if some PAW data can be deallocated... 

     total cpu time spent up to now is      314.6 secs

     Self-consistent Calculation

     iteration #  1     ecut=    60.00 Ry     beta= 0.70
     Davidson diagonalization with overlap
     ethr =  1.00E-02,  avg # of iterations =  2.0

     Threshold (ethr) on eigenvalues was too large:
     Diagonalizing with lowered threshold

     Davidson diagonalization with overlap
     ethr =  6.61E-04,  avg # of iterations =  3.4

     negative rho (up, down):  2.444E-02 0.000E+00

     total cpu time spent up to now is     1565.8 secs

     total energy              =  -27838.63426952 Ry
     estimated scf accuracy    <       2.60151734 Ry

     iteration #  2     ecut=    60.00 Ry     beta= 0.70
     Davidson diagonalization with overlap
     ethr =  6.99E-04,  avg # of iterations = 10.3

     negative rho (up, down):  2.457E-02 0.000E+00

     total cpu time spent up to now is     2190.8 secs

     total energy              =  -27838.85245476 Ry
     estimated scf accuracy    <       1.48410695 Ry

     iteration #  3     ecut=    60.00 Ry     beta= 0.70
     Davidson diagonalization with overlap
     ethr =  3.99E-04,  avg # of iterations =  1.2

     negative rho (up, down):  2.650E-02 0.000E+00

     total cpu time spent up to now is     2712.4 secs

     total energy              =  -27838.94061855 Ry
     estimated scf accuracy    <       0.21128938 Ry

     iteration #  4     ecut=    60.00 Ry     beta= 0.70
     Davidson diagonalization with overlap
     c_bands:  1 eigenvalues not converged
     c_bands:  1 eigenvalues not converged
     c_bands:  2 eigenvalues not converged
     ethr =  5.68E-05,  avg # of iterations = 13.0

     negative rho (up, down):  2.525E-02 0.000E+00

     total cpu time spent up to now is     3587.1 secs

     total energy              =  -27838.99975907 Ry
     estimated scf accuracy    <       0.17042243 Ry

     iteration #  5     ecut=    60.00 Ry     beta= 0.70
     Davidson diagonalization with overlap
     ethr =  4.58E-05,  avg # of iterations =  1.2

     negative rho (up, down):  2.284E-02 0.000E+00

     total cpu time spent up to now is     4099.9 secs

     total energy              =  -27839.00491516 Ry
     estimated scf accuracy    <       0.03941891 Ry

     iteration #  6     ecut=    60.00 Ry     beta= 0.70
     Davidson diagonalization with overlap
     c_bands:  2 eigenvalues not converged
     ethr =  1.06E-05,  avg # of iterations = 11.0

     negative rho (up, down):  1.906E-02 0.000E+00

     total cpu time spent up to now is     4773.3 secs

     total energy              =  -27839.00696328 Ry
     estimated scf accuracy    <       0.00627845 Ry

     iteration #  7     ecut=    60.00 Ry     beta= 0.70
     Davidson diagonalization with overlap
     c_bands:  1 eigenvalues not converged
     c_bands:  2 eigenvalues not converged
     c_bands:  2 eigenvalues not converged
     ethr =  1.69E-06,  avg # of iterations = 13.3

     negative rho (up, down):  1.786E-02 0.000E+00

     total cpu time spent up to now is     5671.7 secs

     total energy              =  -27839.00887966 Ry
     estimated scf accuracy    <       0.00183411 Ry

     iteration #  8     ecut=    60.00 Ry     beta= 0.70
     Davidson diagonalization with overlap
     ethr =  4.93E-07,  avg # of iterations =  3.1

     negative rho (up, down):  1.704E-02 0.000E+00

     total cpu time spent up to now is     6286.9 secs

     total energy              =  -27839.00912403 Ry
     estimated scf accuracy    <       0.00044653 Ry

     iteration #  9     ecut=    60.00 Ry     beta= 0.70
     Davidson diagonalization with overlap
     ethr =  1.20E-07,  avg # of iterations =  4.1

     negative rho (up, down):  1.630E-02 0.000E+00

     total cpu time spent up to now is     7013.1 secs

     total energy              =  -27839.00922863 Ry
     estimated scf accuracy    <       0.00014396 Ry

     iteration # 10     ecut=    60.00 Ry     beta= 0.70
     Davidson diagonalization with overlap
     ethr =  3.87E-08,  avg # of iterations =  3.9

     negative rho (up, down):  1.534E-02 0.000E+00

     total cpu time spent up to now is     7717.0 secs

     total energy              =  -27839.00925603 Ry
     estimated scf accuracy    <       0.00011620 Ry

     iteration # 11     ecut=    60.00 Ry     beta= 0.70
     Davidson diagonalization with overlap
     ethr =  3.12E-08,  avg # of iterations =  1.4

     negative rho (up, down):  1.497E-02 0.000E+00

     total cpu time spent up to now is     8237.3 secs

     total energy              =  -27839.00926057 Ry
     estimated scf accuracy    <       0.00006643 Ry

     iteration # 12     ecut=    60.00 Ry     beta= 0.70
     Davidson diagonalization with overlap
     ethr =  1.79E-08,  avg # of iterations =  1.2

     negative rho (up, down):  1.451E-02 0.000E+00

     total cpu time spent up to now is     8756.4 secs

     total energy              =  -27839.00926214 Ry
     estimated scf accuracy    <       0.00003717 Ry

     iteration # 13     ecut=    60.00 Ry     beta= 0.70
     Davidson diagonalization with overlap
     ethr =  9.99E-09,  avg # of iterations =  2.0

     negative rho (up, down):  1.415E-02 0.000E+00

     total cpu time spent up to now is     9314.3 secs

     total energy              =  -27839.00926435 Ry
     estimated scf accuracy    <       0.00000942 Ry

     iteration # 14     ecut=    60.00 Ry     beta= 0.70
     Davidson diagonalization with overlap
     ethr =  2.53E-09,  avg # of iterations =  4.1

     negative rho (up, down):  1.408E-02 0.000E+00

     total cpu time spent up to now is    10101.7 secs

     total energy              =  -27839.00926744 Ry
     estimated scf accuracy    <       0.00000282 Ry

     iteration # 15     ecut=    60.00 Ry     beta= 0.70
     Davidson diagonalization with overlap
     c_bands:  1 eigenvalues not converged
     ethr =  7.57E-10,  avg # of iterations =  3.8

     negative rho (up, down):  1.399E-02 0.000E+00

     total cpu time spent up to now is    10701.8 secs

     total energy              =  -27839.00926778 Ry
     estimated scf accuracy    <       0.00000112 Ry

     iteration # 16     ecut=    60.00 Ry     beta= 0.70
     Davidson diagonalization with overlap
     c_bands:  1 eigenvalues not converged
     ethr =  3.02E-10,  avg # of iterations =  4.8

     negative rho (up, down):  1.357E-02 0.000E+00

     total cpu time spent up to now is    11299.3 secs

     End of self-consistent calculation

          k = 0.0000 0.0000 0.0000 ( 85237 PWs)   bands (ev):

   -21.5436 -13.8601  -6.9316  -6.1015  -5.4587  -4.7086  -4.6548  -4.5085
    -4.4871  -4.4840  -4.4824  -4.4716  -4.4407  -4.3635  -4.2839  -3.9427
    -3.9404  -3.9302  -3.9110  -3.8697  -3.8685  -3.5114  -3.4748  -3.4747
    -3.4433  -3.4095  -3.3987  -3.2634  -3.2492  -3.2387  -3.2265  -3.1938
    -3.1618  -3.0719  -3.0392  -3.0292  -3.0272  -3.0217  -3.0066  -2.9837
    -2.9786  -2.9752  -2.9508  -2.9284  -2.9021  -2.4727  -2.4119  -2.3939
    -2.3934  -2.3661  -2.3603  -2.3505  -2.3217  -2.3085  -2.2298  -2.1631
    -2.1563  -2.0847  -2.0809  -1.7032  -1.6695  -1.6034  -1.6027  -1.5723
    -1.5271  -1.5030  -1.4667  -1.4249  -1.4210  -1.3940  -1.3887  -1.3681
    -1.3641  -1.3561  -1.3386  -1.3322  -1.3092  -1.3046  -1.2927  -1.2864
    -1.2779  -1.2212  -1.1917  -1.1676  -1.1668  -1.1412  -1.1318  -1.0659
    -1.0139  -0.9938  -0.9715  -0.9667  -0.9544  -0.9446  -0.9367  -0.8578
    -0.8311  -0.8121  -0.8070  -0.7676  -0.7200  -0.7017  -0.6998  -0.6641
    -0.6602  -0.6585  -0.5602  -0.5525  -0.5425  -0.5283  -0.4972  -0.3660
    -0.3185  -0.2162  -0.0965  -0.0630  -0.0486  -0.0361  -0.0291  -0.0152
    -0.0059   0.0369   0.0674   0.1201   0.1346   0.1386   0.1912   0.2313
     0.2355   0.2651   0.3119   0.3136   0.3744   0.4442   0.4443   0.4735
     0.4751   0.4801   0.6101   0.6534   0.6658   0.7083   0.7224   0.7264
     0.7523   0.7829   0.8640   0.9088   0.9254   0.9372   0.9707   0.9819
     1.0076   1.0084   1.0310   1.0966   1.1189   1.1604   1.1621   1.1823
     1.1829   1.1845   1.1925   1.2029   1.2107   1.2314   1.2930   1.2969
     1.2992   1.3049   1.3175   1.3873   1.3897   1.3906   1.4051   1.4123
     1.4391   1.4667   1.4721   1.4865   1.5345   1.5395   1.5420   1.5550
     1.5702   1.5729   1.5992   1.6179   1.6431   1.6572   1.6755   1.6929
     1.7923   1.8108   1.9215   1.9311   1.9549   1.9974   1.9988   2.0047
     2.1368   2.1466   2.2601   2.8579   2.8937   2.9011   2.9146   3.1096
     3.2547   3.9316   5.2182   5.2268   5.2409   5.3642   5.3964   5.7719
     6.7668   6.7709   6.7934   6.8103   6.8203   6.8558   6.9892

          k = 0.0000 0.2309 0.0000 ( 85198 PWs)   bands (ev):

   -21.5436 -13.8601  -6.7895  -6.0635  -5.3568  -5.0035  -4.6783  -4.6382
    -4.5824  -4.4858  -4.3343  -4.3142  -4.2469  -4.2408  -4.1749  -4.0203
    -3.9756  -3.8690  -3.8638  -3.8415  -3.7966  -3.5512  -3.4501  -3.4249
    -3.4184  -3.3746  -3.3544  -3.3206  -3.2959  -3.2635  -3.2386  -3.2360
    -3.1833  -3.1622  -3.1261  -3.0435  -3.0332  -3.0181  -3.0068  -2.9382
    -2.8326  -2.8142  -2.8045  -2.7837  -2.7494  -2.5684  -2.5172  -2.5003
    -2.4596  -2.4391  -2.4239  -2.3704  -2.2714  -2.2018  -2.1707  -2.1609
    -2.1277  -2.0906  -2.0562  -1.8685  -1.7844  -1.7732  -1.7267  -1.7027
    -1.6787  -1.6436  -1.6122  -1.5688  -1.5555  -1.5414  -1.5273  -1.4736
    -1.4341  -1.4150  -1.3830  -1.3657  -1.3233  -1.2971  -1.2701  -1.2591
    -1.2099  -1.2036  -1.1765  -1.1430  -1.1149  -1.0982  -1.0952  -1.0665
    -1.0288  -1.0140  -0.9964  -0.9717  -0.9368  -0.9183  -0.8807  -0.8757
    -0.8382  -0.8190  -0.7984  -0.7812  -0.7653  -0.7427  -0.7194  -0.7090
    -0.6635  -0.6305  -0.6003  -0.5799  -0.5522  -0.5258  -0.4907  -0.4837
    -0.4432  -0.4293  -0.4119  -0.4099  -0.3768  -0.2426  -0.1417  -0.1113
    -0.0822  -0.0383   0.0027   0.0100   0.0264   0.0415   0.1147   0.1633
     0.2232   0.2711   0.3094   0.3390   0.3609   0.3754   0.3869   0.4049
     0.4613   0.4881   0.5350   0.5492   0.5763   0.6036   0.6081   0.6445
     0.7014   0.7827   0.7929   0.8149   0.8428   0.8717   0.8995   0.9187
     0.9683   0.9949   1.0050   1.0188   1.0667   1.0803   1.0978   1.1216
     1.1794   1.2013   1.2285   1.2522   1.2983   1.3063   1.3668   1.3821
     1.4012   1.4151   1.4629   1.4993   1.5166   1.5359   1.5560   1.5767
     1.5972   1.6230   1.6387   1.6427   1.6506   1.6808   1.7014   1.7528
     1.7925   1.8111   1.8596   1.8765   1.9017   1.9249   1.9313   1.9644
     1.9797   1.9897   2.0530   2.0836   2.1162   2.1297   2.2379   2.2856
     2.3016   2.3611   2.5141   2.6235   2.9638   3.0522   3.5138   3.5673
     3.6469   4.1754   4.6862   5.0249   5.1829   5.6111   5.6496   5.8401
     5.9256   6.2445   6.5899   6.6468   6.9462   6.9928   7.0169

          k = 0.0000 0.4619 0.0000 ( 85202 PWs)   bands (ev):

   -21.5436 -13.8600  -6.3991  -6.0164  -5.6590  -5.0294  -4.6972  -4.6555
    -4.6066  -4.4971  -4.3569  -4.2296  -4.0866  -3.9623  -3.9308  -3.9050
    -3.8722  -3.7511  -3.7065  -3.6881  -3.6691  -3.6496  -3.5445  -3.5217
    -3.5010  -3.4723  -3.4597  -3.4064  -3.3731  -3.3320  -3.3125  -3.2864
    -3.1112  -3.0737  -3.0610  -3.0507  -3.0271  -3.0038  -2.8316  -2.8166
    -2.8064  -2.7835  -2.7607  -2.7195  -2.5822  -2.5349  -2.5137  -2.4732
    -2.4432  -2.4269  -2.3873  -2.3520  -2.3300  -2.3055  -2.2828  -2.2330
    -2.1397  -2.1175  -2.0983  -2.0683  -1.9654  -1.9358  -1.9232  -1.9097
    -1.8721  -1.7700  -1.7482  -1.6990  -1.6780  -1.6442  -1.6270  -1.5567
    -1.5347  -1.5257  -1.4437  -1.4176  -1.3879  -1.3560  -1.3148  -1.3064
    -1.2813  -1.2718  -1.2547  -1.2130  -1.1973  -1.1773  -1.1616  -1.1542
    -1.1485  -1.1232  -1.0774  -1.0528  -1.0343  -1.0084  -0.9791  -0.9694
    -0.9396  -0.9092  -0.8500  -0.8097  -0.7889  -0.7662  -0.7215  -0.7019
    -0.6941  -0.6743  -0.6397  -0.6095  -0.5484  -0.5175  -0.5093  -0.4505
    -0.4290  -0.3930  -0.3337  -0.2999  -0.2578  -0.1929  -0.1587  -0.1479
    -0.1164  -0.0866  -0.0720  -0.0446  -0.0159   0.0027   0.0426   0.0458
     0.0527   0.0795   0.0971   0.1176   0.1539   0.2114   0.2493   0.2643
     0.3080   0.3522   0.3828   0.4430   0.4859   0.5389   0.5737   0.6161
     0.6735   0.7257   0.7649   0.7761   0.8129   0.8398   0.8516   0.8774
     0.9016   0.9382   0.9511   1.0006   1.0357   1.0818   1.0954   1.1310
     1.1481   1.1692   1.1929   1.2265   1.3181   1.3447   1.3739   1.4165
     1.4252   1.4799   1.5232   1.5355   1.5528   1.5852   1.6465   1.6732
     1.6978   1.7079   1.7344   1.7872   1.8219   1.8696   1.8716   1.8798
     1.8885   1.9205   1.9259   1.9881   2.0702   2.0973   2.1263   2.1349
     2.1895   2.2415   2.2973   2.3685   2.4140   2.8070   2.9098   3.0074
     3.1787   3.2094   3.3141   3.5708   3.6705   3.9154   4.0111   4.3909
     4.4161   4.4849   4.6528   4.6980   4.8363   4.9280   5.0551   5.0927
     5.3239   5.7393   5.9467   6.2526   6.4355   6.7306   6.8994

          k = 0.2000-0.1155 0.0000 ( 85198 PWs)   bands (ev):

   -21.5436 -13.8601  -6.7895  -6.0635  -5.3568  -5.0034  -4.6785  -4.6383
    -4.5823  -4.4858  -4.3343  -4.3142  -4.2470  -4.2408  -4.1749  -4.0203
    -3.9756  -3.8690  -3.8638  -3.8415  -3.7966  -3.5513  -3.4501  -3.4248
    -3.4184  -3.3746  -3.3544  -3.3206  -3.2959  -3.2636  -3.2387  -3.2360
    -3.1833  -3.1621  -3.1260  -3.0435  -3.0332  -3.0181  -3.0068  -2.9383
    -2.8327  -2.8143  -2.8045  -2.7837  -2.7493  -2.5685  -2.5173  -2.5003
    -2.4596  -2.4391  -2.4238  -2.3704  -2.2714  -2.2017  -2.1706  -2.1608
    -2.1277  -2.0907  -2.0562  -1.8684  -1.7844  -1.7732  -1.7267  -1.7026
    -1.6787  -1.6437  -1.6123  -1.5688  -1.5554  -1.5413  -1.5274  -1.4736
    -1.4341  -1.4150  -1.3830  -1.3657  -1.3232  -1.2972  -1.2702  -1.2591
    -1.2098  -1.2036  -1.1764  -1.1429  -1.1149  -1.0980  -1.0951  -1.0665
    -1.0287  -1.0141  -0.9965  -0.9716  -0.9370  -0.9184  -0.8808  -0.8758
    -0.8382  -0.8189  -0.7983  -0.7812  -0.7653  -0.7427  -0.7194  -0.7090
    -0.6637  -0.6304  -0.6004  -0.5799  -0.5522  -0.5259  -0.4907  -0.4838
    -0.4430  -0.4294  -0.4119  -0.4099  -0.3767  -0.2427  -0.1416  -0.1110
    -0.0822  -0.0384   0.0027   0.0099   0.0263   0.0414   0.1146   0.1631
     0.2232   0.2711   0.3096   0.3390   0.3608   0.3754   0.3868   0.4049
     0.4613   0.4881   0.5351   0.5493   0.5762   0.6036   0.6081   0.6446
     0.7016   0.7827   0.7928   0.8148   0.8428   0.8717   0.8995   0.9185
     0.9683   0.9949   1.0050   1.0188   1.0667   1.0804   1.0979   1.1216
     1.1795   1.2013   1.2285   1.2523   1.2984   1.3063   1.3668   1.3822
     1.4012   1.4152   1.4629   1.4994   1.5166   1.5359   1.5559   1.5766
     1.5972   1.6230   1.6388   1.6427   1.6506   1.6808   1.7014   1.7528
     1.7926   1.8110   1.8595   1.8765   1.9018   1.9249   1.9314   1.9644
     1.9796   1.9898   2.0528   2.0836   2.1162   2.1297   2.2382   2.2855
     2.3017   2.3613   2.5136   2.6237   2.9644   3.0518   3.5137   3.5673
     3.6469   4.1748   4.6867   5.0253   5.1825   5.6111   5.6496   5.8402
     5.9252   6.2446   6.5898   6.6467   6.9463   6.9931   7.0173

          k = 0.2000 0.1155 0.0000 ( 85198 PWs)   bands (ev):

   -21.5436 -13.8601  -6.7885  -6.0643  -5.3555  -4.9865  -4.6910  -4.6684
    -4.5657  -4.4670  -4.3346  -4.3090  -4.2790  -4.2152  -4.1796  -4.0350
    -4.0121  -3.8728  -3.8500  -3.8069  -3.7978  -3.5577  -3.4494  -3.4268
    -3.4232  -3.4061  -3.3410  -3.3219  -3.2667  -3.2599  -3.2430  -3.2406
    -3.1958  -3.1392  -3.1378  -3.0520  -3.0241  -3.0077  -3.0044  -2.9456
    -2.8297  -2.8220  -2.7915  -2.7814  -2.7343  -2.5595  -2.5198  -2.4923
    -2.4624  -2.4335  -2.4186  -2.3915  -2.2703  -2.2284  -2.1655  -2.1525
    -2.1240  -2.0800  -2.0728  -1.8746  -1.7738  -1.7525  -1.7325  -1.7158
    -1.6488  -1.6463  -1.6351  -1.5750  -1.5443  -1.5351  -1.5041  -1.4655
    -1.4202  -1.3981  -1.3856  -1.3686  -1.3331  -1.3212  -1.2762  -1.2644
    -1.2144  -1.1973  -1.1924  -1.1270  -1.1247  -1.1014  -1.0867  -1.0705
    -1.0534  -1.0053  -0.9861  -0.9701  -0.9188  -0.9101  -0.8795  -0.8762
    -0.8402  -0.8370  -0.8054  -0.7907  -0.7785  -0.7397  -0.7273  -0.7155
    -0.6744  -0.6585  -0.6275  -0.5840  -0.5372  -0.5110  -0.5009  -0.4838
    -0.4400  -0.4308  -0.4125  -0.4079  -0.2961  -0.2214  -0.1711  -0.0974
    -0.0825  -0.0548   0.0034   0.0106   0.0315   0.0414   0.0865   0.0955
     0.1993   0.3005   0.3175   0.3368   0.3612   0.3679   0.3807   0.3866
     0.4385   0.4768   0.5175   0.5737   0.5862   0.5948   0.6274   0.6736
     0.7271   0.7728   0.8030   0.8168   0.8419   0.8833   0.8897   0.9508
     0.9633   0.9915   0.9940   1.0021   1.0581   1.0677   1.1042   1.1193
     1.1737   1.2231   1.2313   1.2399   1.2795   1.3298   1.3679   1.3867
     1.3960   1.4155   1.4846   1.5031   1.5257   1.5313   1.5665   1.5758
     1.5951   1.6285   1.6361   1.6501   1.6555   1.6854   1.6914   1.7681
     1.7780   1.8153   1.8574   1.8910   1.9073   1.9174   1.9409   1.9698
     1.9873   1.9929   2.0856   2.0881   2.1078   2.1689   2.1831   2.2872
     2.3000   2.3072   2.5767   2.5933   2.8919   3.1129   3.5091   3.5618
     3.6518   4.1853   4.6099   5.0447   5.2320   5.6157   5.6525   5.8730
     5.9606   6.1491   6.6010   6.6519   6.8595   6.9802   7.0198

          k = 0.2000 0.3464 0.0000 ( 85214 PWs)   bands (ev):

   -21.5436 -13.8602  -6.5179  -6.0201  -5.2540  -5.2419  -5.1057  -4.6008
    -4.5517  -4.1763  -4.1605  -4.1489  -4.1317  -4.0898  -4.0675  -4.0543
    -3.9731  -3.9566  -3.9455  -3.6030  -3.5865  -3.5745  -3.5581  -3.5013
    -3.4842  -3.3736  -3.3536  -3.3293  -3.3228  -3.2835  -3.2219  -3.1934
    -3.1694  -3.1606  -3.1400  -3.0998  -3.0613  -3.0442  -3.0159  -2.9476
    -2.9249  -2.6909  -2.6206  -2.5978  -2.5656  -2.5432  -2.5359  -2.5150
    -2.4658  -2.4504  -2.4359  -2.3307  -2.2985  -2.2775  -2.1985  -2.1723
    -2.1248  -2.1037  -2.0835  -2.0475  -2.0158  -1.8823  -1.8400  -1.8300
    -1.7862  -1.7496  -1.7267  -1.6985  -1.6791  -1.6393  -1.6215  -1.5461
    -1.4939  -1.4688  -1.4444  -1.4347  -1.4043  -1.3904  -1.3540  -1.3121
    -1.2821  -1.2586  -1.1909  -1.1695  -1.1563  -1.1348  -1.1169  -1.1062
    -1.0964  -1.0609  -1.0418  -1.0290  -0.9849  -0.9536  -0.9256  -0.9037
    -0.8750  -0.8372  -0.8168  -0.7955  -0.7736  -0.7620  -0.7486  -0.7251
    -0.7195  -0.7021  -0.6815  -0.6471  -0.6386  -0.6037  -0.5624  -0.5180
    -0.5070  -0.4785  -0.4252  -0.3940  -0.3630  -0.3301  -0.2207  -0.1696
    -0.1395  -0.0877  -0.0455  -0.0176   0.0119   0.0221   0.0566   0.0676
     0.0903   0.1089   0.1519   0.1664   0.2117   0.2790   0.3396   0.3627
     0.3953   0.4143   0.4499   0.4921   0.5482   0.5596   0.5869   0.6328
     0.6515   0.7030   0.7208   0.7616   0.8070   0.8446   0.8736   0.9070
     0.9112   0.9411   0.9637   0.9708   0.9894   1.0017   1.0184   1.0377
     1.1220   1.1937   1.2078   1.2537   1.3127   1.3805   1.4551   1.4882
     1.5213   1.5340   1.5679   1.6232   1.6273   1.6754   1.6841   1.6977
     1.7145   1.7280   1.7423   1.7593   1.7816   1.8007   1.8519   1.8630
     1.8999   1.9254   1.9432   1.9597   1.9945   2.0659   2.1239   2.1662
     2.1849   2.2454   2.2650   2.2762   2.3998   2.4267   2.5085   2.7081
     2.9318   2.9808   3.1159   3.4801   3.5089   3.6325   3.7696   4.2548
     4.3222   4.4059   4.4828   4.5422   4.9071   5.1722   5.5997   5.7155
     5.8523   5.9500   6.3563   6.4050   6.4452   6.4956   6.5328

          k = 0.2000-0.5774 0.0000 ( 85178 PWs)   bands (ev):

   -21.5436 -13.8601  -6.1850  -5.9346  -5.7893  -5.3159  -4.7874  -4.6926
    -4.5247  -4.4188  -4.1499  -4.1265  -4.0128  -3.9760  -3.8756  -3.8688
    -3.7743  -3.7602  -3.6833  -3.6395  -3.6166  -3.6085  -3.5938  -3.5831
    -3.5540  -3.4591  -3.4327  -3.4226  -3.4099  -3.3943  -3.2998  -3.2271
    -3.1691  -3.1203  -3.0835  -3.0555  -3.0360  -3.0103  -2.9691  -2.9102
    -2.8778  -2.7965  -2.7811  -2.6108  -2.6028  -2.5594  -2.4873  -2.4682
    -2.4285  -2.3899  -2.2934  -2.2697  -2.2543  -2.2082  -2.1695  -2.1482
    -2.1094  -2.0894  -2.0243  -2.0104  -1.9947  -1.9781  -1.9658  -1.9398
    -1.9141  -1.8861  -1.8681  -1.7797  -1.7533  -1.7178  -1.6710  -1.6419
    -1.5830  -1.5242  -1.5180  -1.5028  -1.4762  -1.4310  -1.4077  -1.4050
    -1.3553  -1.3295  -1.2878  -1.2699  -1.2399  -1.2263  -1.1502  -1.1287
    -1.1002  -1.0805  -1.0723  -1.0377  -0.9648  -0.9416  -0.9051  -0.8956
    -0.8635  -0.8384  -0.8266  -0.8059  -0.7892  -0.7686  -0.7462  -0.7304
    -0.7061  -0.6982  -0.6874  -0.6655  -0.6498  -0.6310  -0.6067  -0.5837
    -0.5721  -0.5400  -0.4095  -0.3462  -0.2999  -0.2883  -0.2356  -0.1825
    -0.1658  -0.1282  -0.0815  -0.0637  -0.0555  -0.0338   0.0056   0.0256
     0.0439   0.0820   0.1274   0.1400   0.2166   0.2393   0.2537   0.3193
     0.3619   0.4118   0.4295   0.4819   0.5327   0.5613   0.5847   0.6101
     0.6265   0.6741   0.6830   0.6912   0.7289   0.7686   0.7905   0.8301
     0.8667   0.8838   0.9061   0.9416   0.9615   1.0283   1.0470   1.1068
     1.1791   1.2120   1.2442   1.3257   1.3593   1.3748   1.4197   1.4903
     1.5011   1.5498   1.5704   1.6308   1.6615   1.6851   1.7102   1.7286
     1.7375   1.7710   1.8163   1.8349   1.8637   1.8835   1.8963   1.9193
     1.9384   1.9918   2.0103   2.0693   2.1096   2.1348   2.1415   2.1865
     2.1921   2.2923   2.3193   2.3519   2.5198   2.6869   3.2927   3.3004
     3.5689   3.6196   3.6653   3.6982   3.7872   3.9388   4.2823   4.3155
     4.3661   4.7773   4.8519   4.8854   4.9415   5.0051   5.1498   5.2457
     5.3654   5.5805   5.7239   5.7899   5.9922   6.3723   6.4068

          k = 0.2000-0.3464 0.0000 ( 85214 PWs)   bands (ev):

   -21.5436 -13.8600  -6.5215  -6.0162  -5.2617  -5.2415  -5.1082  -4.6120
    -4.5407  -4.1747  -4.1567  -4.1522  -4.1097  -4.0843  -4.0670  -4.0520
    -3.9695  -3.9503  -3.9423  -3.6152  -3.5904  -3.5739  -3.5606  -3.5123
    -3.4880  -3.3594  -3.3490  -3.3282  -3.3069  -3.2869  -3.2355  -3.1981
    -3.1817  -3.1529  -3.1395  -3.0930  -3.0642  -3.0407  -3.0129  -2.9608
    -2.9138  -2.7054  -2.6228  -2.6058  -2.5914  -2.5590  -2.5318  -2.5165
    -2.5059  -2.4527  -2.4276  -2.3272  -2.2993  -2.2415  -2.2068  -2.1705
    -2.1323  -2.0908  -2.0814  -2.0381  -2.0204  -1.8641  -1.8433  -1.8168
    -1.7833  -1.7569  -1.7387  -1.7091  -1.6832  -1.6571  -1.6207  -1.6020
    -1.4783  -1.4716  -1.4432  -1.4400  -1.4083  -1.3581  -1.3317  -1.3116
    -1.2820  -1.2306  -1.2089  -1.1793  -1.1606  -1.1385  -1.1239  -1.1113
    -1.0897  -1.0638  -1.0460  -1.0107  -0.9965  -0.9454  -0.9230  -0.8844
    -0.8534  -0.8370  -0.8080  -0.8001  -0.7839  -0.7655  -0.7315  -0.7123
    -0.7068  -0.6951  -0.6760  -0.6608  -0.6247  -0.6027  -0.5886  -0.5051
    -0.4858  -0.4662  -0.4360  -0.3841  -0.3564  -0.2873  -0.2176  -0.1823
    -0.1530  -0.0631  -0.0453  -0.0219  -0.0058   0.0199   0.0442   0.0679
     0.0830   0.1016   0.1581   0.1721   0.2055   0.2797   0.3450   0.3533
     0.3819   0.4243   0.4613   0.4752   0.5414   0.5566   0.6013   0.6275
     0.6406   0.6658   0.7191   0.7628   0.7867   0.8612   0.8885   0.9003
     0.9051   0.9521   0.9654   0.9715   0.9935   1.0192   1.0231   1.0431
     1.1439   1.1902   1.2155   1.2588   1.3021   1.3843   1.4272   1.4697
     1.5144   1.5392   1.5579   1.6243   1.6433   1.6633   1.6871   1.6955
     1.7243   1.7319   1.7404   1.7605   1.7895   1.8010   1.8448   1.8766
     1.9016   1.9234   1.9419   1.9595   1.9999   2.0734   2.1091   2.1544
     2.1738   2.2282   2.2535   2.2789   2.4057   2.4092   2.5153   2.6522
     2.9679   2.9862   3.1268   3.4791   3.5105   3.6690   3.7303   4.2576
     4.3331   4.4195   4.4621   4.4983   4.9576   5.2151   5.5990   5.7371
     5.8090   5.8736   6.3462   6.3929   6.4515   6.4737   6.6101

          k = 0.4000-0.2309 0.0000 ( 85202 PWs)   bands (ev):

   -21.5436 -13.8600  -6.3992  -6.0164  -5.6589  -5.0293  -4.6974  -4.6555
    -4.6066  -4.4971  -4.3569  -4.2297  -4.0866  -3.9623  -3.9308  -3.9049
    -3.8722  -3.7510  -3.7065  -3.6881  -3.6691  -3.6497  -3.5445  -3.5217
    -3.5009  -3.4723  -3.4597  -3.4063  -3.3731  -3.3320  -3.3125  -3.2863
    -3.1112  -3.0736  -3.0611  -3.0506  -3.0271  -3.0038  -2.8315  -2.8165
    -2.8064  -2.7834  -2.7607  -2.7195  -2.5824  -2.5349  -2.5137  -2.4732
    -2.4433  -2.4269  -2.3873  -2.3520  -2.3300  -2.3055  -2.2828  -2.2330
    -2.1397  -2.1176  -2.0983  -2.0682  -1.9653  -1.9357  -1.9231  -1.9096
    -1.8721  -1.7698  -1.7483  -1.6989  -1.6780  -1.6442  -1.6271  -1.5569
    -1.5346  -1.5259  -1.4437  -1.4178  -1.3878  -1.3560  -1.3147  -1.3062
    -1.2812  -1.2719  -1.2546  -1.2129  -1.1972  -1.1773  -1.1616  -1.1542
    -1.1485  -1.1231  -1.0773  -1.0528  -1.0344  -1.0084  -0.9791  -0.9693
    -0.9396  -0.9093  -0.8500  -0.8097  -0.7889  -0.7663  -0.7215  -0.7021
    -0.6943  -0.6744  -0.6398  -0.6094  -0.5482  -0.5176  -0.5092  -0.4507
    -0.4290  -0.3932  -0.3339  -0.3001  -0.2577  -0.1928  -0.1589  -0.1479
    -0.1164  -0.0865  -0.0719  -0.0446  -0.0158   0.0027   0.0426   0.0459
     0.0527   0.0796   0.0970   0.1175   0.1540   0.2113   0.2491   0.2643
     0.3079   0.3523   0.3830   0.4430   0.4857   0.5389   0.5737   0.6160
     0.6736   0.7255   0.7647   0.7760   0.8130   0.8397   0.8516   0.8774
     0.9014   0.9382   0.9509   1.0008   1.0357   1.0819   1.0954   1.1309
     1.1481   1.1690   1.1930   1.2264   1.3181   1.3447   1.3739   1.4166
     1.4253   1.4801   1.5232   1.5355   1.5529   1.5853   1.6465   1.6733
     1.6977   1.7079   1.7343   1.7872   1.8220   1.8696   1.8716   1.8799
     1.8885   1.9207   1.9259   1.9879   2.0704   2.0974   2.1262   2.1351
     2.1890   2.2415   2.2978   2.3685   2.4141   2.8071   2.9095   3.0080
     3.1787   3.2094   3.3139   3.5707   3.6704   3.9154   4.0111   4.3909
     4.4161   4.4850   4.6527   4.6979   4.8364   4.9283   5.0550   5.0925
     5.3234   5.7394   5.9466   6.2525   6.4355   6.7307   6.9017

          k = 0.4000-0.0000 0.0000 ( 85214 PWs)   bands (ev):

   -21.5436 -13.8602  -6.5180  -6.0201  -5.2539  -5.2419  -5.1058  -4.6008
    -4.5518  -4.1763  -4.1605  -4.1490  -4.1317  -4.0897  -4.0675  -4.0544
    -3.9731  -3.9565  -3.9455  -3.6031  -3.5864  -3.5745  -3.5581  -3.5012
    -3.4842  -3.3736  -3.3536  -3.3293  -3.3227  -3.2834  -3.2219  -3.1934
    -3.1694  -3.1605  -3.1400  -3.0998  -3.0613  -3.0442  -3.0159  -2.9476
    -2.9249  -2.6909  -2.6206  -2.5978  -2.5656  -2.5431  -2.5360  -2.5151
    -2.4658  -2.4505  -2.4360  -2.3307  -2.2985  -2.2775  -2.1985  -2.1723
    -2.1247  -2.1038  -2.0835  -2.0474  -2.0158  -1.8823  -1.8399  -1.8301
    -1.7861  -1.7496  -1.7265  -1.6985  -1.6789  -1.6393  -1.6214  -1.5460
    -1.4942  -1.4688  -1.4444  -1.4346  -1.4044  -1.3904  -1.3539  -1.3120
    -1.2820  -1.2585  -1.1908  -1.1694  -1.1563  -1.1348  -1.1169  -1.1062
    -1.0965  -1.0609  -1.0419  -1.0290  -0.9851  -0.9539  -0.9259  -0.9037
    -0.8750  -0.8371  -0.8169  -0.7955  -0.7736  -0.7621  -0.7487  -0.7252
    -0.7196  -0.7021  -0.6815  -0.6471  -0.6385  -0.6037  -0.5625  -0.5180
    -0.5070  -0.4785  -0.4253  -0.3940  -0.3630  -0.3300  -0.2205  -0.1695
    -0.1395  -0.0878  -0.0455  -0.0176   0.0120   0.0220   0.0566   0.0676
     0.0904   0.1088   0.1519   0.1664   0.2118   0.2791   0.3394   0.3628
     0.3952   0.4143   0.4498   0.4921   0.5482   0.5597   0.5870   0.6328
     0.6515   0.7029   0.7207   0.7614   0.8069   0.8445   0.8737   0.9070
     0.9112   0.9411   0.9638   0.9708   0.9894   1.0016   1.0184   1.0377
     1.1219   1.1937   1.2078   1.2540   1.3127   1.3804   1.4550   1.4882
     1.5213   1.5340   1.5679   1.6232   1.6273   1.6754   1.6841   1.6977
     1.7145   1.7279   1.7423   1.7593   1.7816   1.8007   1.8518   1.8630
     1.8999   1.9255   1.9432   1.9597   1.9946   2.0653   2.1239   2.1663
     2.1850   2.2456   2.2651   2.2761   2.3997   2.4270   2.5089   2.7078
     2.9319   2.9809   3.1160   3.4801   3.5089   3.6330   3.7691   4.2548
     4.3222   4.4059   4.4829   4.5419   4.9074   5.1720   5.5997   5.7157
     5.8521   5.9497   6.3562   6.4051   6.4453   6.4955   6.5326

          k = 0.4000 0.2309 0.0000 ( 85202 PWs)   bands (ev):

   -21.5436 -13.8603  -6.3940  -6.0175  -5.6594  -5.0143  -4.7167  -4.6465
    -4.5807  -4.4480  -4.4460  -4.2483  -4.1025  -3.9760  -3.9408  -3.8912
    -3.8779  -3.7329  -3.7169  -3.6761  -3.6612  -3.6493  -3.5475  -3.5162
    -3.5080  -3.4553  -3.4408  -3.4383  -3.3810  -3.3216  -3.3213  -3.3093
    -3.0899  -3.0760  -3.0572  -3.0384  -3.0158  -3.0079  -2.8348  -2.8056
    -2.7941  -2.7711  -2.7358  -2.7168  -2.5822  -2.5203  -2.5183  -2.4586
    -2.4313  -2.4163  -2.4052  -2.3397  -2.3197  -2.3056  -2.2696  -2.2485
    -2.1400  -2.1244  -2.0992  -2.0873  -1.9792  -1.9517  -1.9141  -1.9066
    -1.8612  -1.7478  -1.7149  -1.6966  -1.6807  -1.6419  -1.6003  -1.5851
    -1.5438  -1.5365  -1.5276  -1.4266  -1.4195  -1.3469  -1.3337  -1.2923
    -1.2693  -1.2547  -1.2219  -1.2204  -1.1921  -1.1656  -1.1649  -1.1556
    -1.1372  -1.1062  -1.0900  -1.0407  -1.0302  -1.0146  -0.9755  -0.9522
    -0.9375  -0.9198  -0.8714  -0.8248  -0.8080  -0.7837  -0.7409  -0.7188
    -0.6903  -0.6717  -0.6497  -0.5955  -0.5435  -0.5248  -0.5148  -0.4726
    -0.4288  -0.3888  -0.3346  -0.2614  -0.2378  -0.2338  -0.1539  -0.1273
    -0.1172  -0.1039  -0.0523  -0.0521  -0.0265  -0.0008   0.0086   0.0250
     0.0638   0.0747   0.0969   0.1129   0.1321   0.2061   0.2341   0.2553
     0.2735   0.3533   0.4131   0.4161   0.5040   0.5409   0.5963   0.6275
     0.6539   0.7267   0.7479   0.7872   0.8106   0.8470   0.8662   0.8693
     0.9413   0.9456   0.9683   0.9969   1.0188   1.0312   1.1144   1.1195
     1.1356   1.1579   1.2063   1.2287   1.3477   1.3579   1.3897   1.3915
     1.4213   1.5107   1.5128   1.5382   1.5472   1.6109   1.6599   1.6866
     1.6989   1.7062   1.7319   1.7631   1.8090   1.8702   1.8792   1.8858
     1.8915   1.9248   1.9283   2.0213   2.0452   2.1013   2.1204   2.1393
     2.2437   2.2442   2.3354   2.3803   2.4201   2.8070   2.9093   2.9478
     3.1817   3.1823   3.3227   3.5730   3.6944   3.9225   3.9760   4.3960
     4.4134   4.4844   4.6283   4.7149   4.8211   4.9466   5.0763   5.1042
     5.3575   5.7335   5.9013   6.2771   6.3646   6.7968   6.8105

          k = 0.4000-0.6928 0.0000 ( 85178 PWs)   bands (ev):

   -21.5436 -13.8602  -6.1792  -5.9289  -5.8004  -5.3192  -4.7333  -4.6852
    -4.5536  -4.4737  -4.1496  -4.1058  -4.0211  -3.9903  -3.8750  -3.8669
    -3.7707  -3.7495  -3.7003  -3.6515  -3.6272  -3.6035  -3.5967  -3.5881
    -3.5309  -3.4531  -3.4300  -3.4240  -3.3977  -3.3754  -3.3400  -3.2300
    -3.1785  -3.1227  -3.0796  -3.0559  -3.0212  -2.9944  -2.9612  -2.8986
    -2.8635  -2.7999  -2.7828  -2.6063  -2.5957  -2.5587  -2.4806  -2.4544
    -2.4194  -2.3913  -2.2948  -2.2677  -2.2522  -2.2114  -2.1820  -2.1659
    -2.1034  -2.0817  -2.0287  -2.0030  -2.0016  -1.9760  -1.9577  -1.9391
    -1.9083  -1.8752  -1.8588  -1.7712  -1.7489  -1.6856  -1.6835  -1.6559
    -1.6151  -1.5770  -1.5108  -1.4957  -1.4941  -1.4575  -1.4259  -1.4071
    -1.3490  -1.3289  -1.2889  -1.2425  -1.2297  -1.1790  -1.1395  -1.1328
    -1.1071  -1.0876  -1.0628  -1.0404  -0.9675  -0.9200  -0.9103  -0.8825
    -0.8734  -0.8426  -0.8325  -0.8147  -0.7998  -0.7826  -0.7703  -0.7631
    -0.7120  -0.6870  -0.6775  -0.6668  -0.6368  -0.6160  -0.6114  -0.5994
    -0.5868  -0.5253  -0.4191  -0.3860  -0.3259  -0.2765  -0.2254  -0.1740
    -0.1532  -0.1223  -0.0822  -0.0670  -0.0380  -0.0318   0.0088   0.0119
     0.0629   0.0866   0.1296   0.1638   0.2033   0.2361   0.2492   0.2916
     0.3314   0.3661   0.4356   0.4709   0.5415   0.5776   0.5906   0.6139
     0.6504   0.6664   0.6776   0.6806   0.7491   0.7738   0.8034   0.8357
     0.8695   0.8896   0.9093   0.9165   0.9504   0.9902   1.0628   1.1350
     1.1768   1.2201   1.2488   1.3384   1.3555   1.4019   1.4309   1.4876
     1.4956   1.5438   1.5833   1.6360   1.6550   1.6686   1.7000   1.7322
     1.7462   1.7727   1.8166   1.8442   1.8560   1.8777   1.8883   1.9207
     1.9423   1.9683   2.0170   2.0471   2.1003   2.1314   2.1503   2.1897
     2.2021   2.2831   2.3233   2.4610   2.5459   2.6356   3.2915   3.2966
     3.5782   3.6044   3.6805   3.6929   3.7576   3.9228   4.3068   4.3123
     4.3989   4.7749   4.8393   4.9004   4.9445   5.0199   5.1452   5.2381
     5.3480   5.5104   5.7392   5.8066   6.0313   6.3914   6.4112

          k = 0.4000-0.4619 0.0000 ( 85178 PWs)   bands (ev):

   -21.5436 -13.8601  -6.1852  -5.9346  -5.7891  -5.3160  -4.7872  -4.6928
    -4.5246  -4.4189  -4.1499  -4.1266  -4.0128  -3.9760  -3.8756  -3.8688
    -3.7743  -3.7602  -3.6832  -3.6395  -3.6166  -3.6085  -3.5938  -3.5831
    -3.5541  -3.4591  -3.4326  -3.4226  -3.4098  -3.3943  -3.2997  -3.2271
    -3.1690  -3.1203  -3.0836  -3.0555  -3.0360  -3.0103  -2.9691  -2.9101
    -2.8779  -2.7964  -2.7811  -2.6108  -2.6028  -2.5596  -2.4872  -2.4682
    -2.4284  -2.3899  -2.2934  -2.2697  -2.2544  -2.2082  -2.1695  -2.1480
    -2.1092  -2.0894  -2.0244  -2.0104  -1.9947  -1.9781  -1.9659  -1.9397
    -1.9141  -1.8862  -1.8681  -1.7795  -1.7533  -1.7178  -1.6710  -1.6420
    -1.5831  -1.5242  -1.5181  -1.5026  -1.4760  -1.4310  -1.4077  -1.4050
    -1.3549  -1.3295  -1.2879  -1.2699  -1.2399  -1.2264  -1.1503  -1.1286
    -1.1001  -1.0804  -1.0723  -1.0377  -0.9648  -0.9417  -0.9052  -0.8955
    -0.8635  -0.8384  -0.8266  -0.8059  -0.7893  -0.7687  -0.7462  -0.7305
    -0.7061  -0.6981  -0.6875  -0.6655  -0.6498  -0.6310  -0.6068  -0.5837
    -0.5722  -0.5401  -0.4095  -0.3462  -0.2995  -0.2885  -0.2357  -0.1825
    -0.1657  -0.1281  -0.0814  -0.0636  -0.0555  -0.0338   0.0057   0.0256
     0.0440   0.0819   0.1273   0.1399   0.2166   0.2392   0.2536   0.3193
     0.3617   0.4117   0.4293   0.4820   0.5327   0.5614   0.5847   0.6102
     0.6264   0.6741   0.6829   0.6911   0.7288   0.7684   0.7905   0.8302
     0.8668   0.8839   0.9060   0.9416   0.9614   1.0284   1.0469   1.1067
     1.1791   1.2120   1.2443   1.3258   1.3593   1.3751   1.4198   1.4903
     1.5010   1.5498   1.5704   1.6308   1.6615   1.6851   1.7102   1.7286
     1.7374   1.7711   1.8162   1.8348   1.8638   1.8836   1.8964   1.9193
     1.9383   1.9918   2.0103   2.0694   2.1096   2.1349   2.1415   2.1862
     2.1921   2.2923   2.3191   2.3518   2.5204   2.6872   3.2928   3.3003
     3.5686   3.6196   3.6652   3.6983   3.7871   3.9395   4.2822   4.3154
     4.3662   4.7772   4.8519   4.8851   4.9415   5.0053   5.1500   5.2458
     5.3653   5.5804   5.7239   5.7899   5.9921   6.3721   6.4067

     the Fermi energy is     1.9275 ev

!    total energy              =  -27839.00926783 Ry

     total all-electron energy =  -1326943.468479 Ry
     estimated scf accuracy    <       0.00000088 Ry
     smearing contrib. (-TS)   =       0.00176569 Ry
     internal energy E=F+TS    =  -27839.01103352 Ry

     The total energy is F=E-TS. E is the sum of the following terms:
     one-electron contribution =  -24921.68343173 Ry
     hartree contribution      =   12765.61307470 Ry
     xc contribution           =    -905.28506948 Ry
     ewald contribution        =   10716.63235546 Ry
     one-center paw contrib.   =  -25494.28796247 Ry

     convergence has been achieved in  16 iterations

     negative rho (up, down):  1.357E-02 0.000E+00

     Forces acting on atoms (cartesian axes, Ry/au):

     atom    1 type  1   force =    -0.00030261    0.00138009   -0.00493725
     atom    2 type  1   force =    -0.00052141   -0.00029926   -0.00271236
     atom    3 type  1   force =     0.00080418   -0.00083931   -0.00286452
     atom    4 type  1   force =    -0.00056459    0.00030198   -0.00390413
     atom    5 type  1   force =    -0.00032183    0.00110829   -0.00286600
     atom    6 type  1   force =     0.00063600    0.00035837   -0.00401809
     atom    7 type  1   force =    -0.00134308   -0.00077620   -0.00605679
     atom    8 type  1   force =     0.00102880   -0.00094858   -0.00492249
     atom    9 type  1   force =    -0.00001226   -0.00063103   -0.00390462
     atom   10 type  1   force =    -0.00108834   -0.00348775    0.00328809
     atom   11 type  1   force =    -0.00122198   -0.00070679    0.00380477
     atom   12 type  1   force =     0.00194564   -0.00431713    0.00166564
     atom   13 type  1   force =     0.00259931    0.00255060    0.00241175
     atom   14 type  1   force =    -0.00276716    0.00384231    0.00167242
     atom   15 type  1   force =    -0.00026105   -0.00015800   -0.00147049
     atom   16 type  1   force =    -0.00269456   -0.00154654    0.01588196
     atom   17 type  1   force =    -0.00354926    0.00080587    0.00328285
     atom   18 type  1   force =     0.00350355    0.00097146    0.00240782
     atom   19 type  1   force =     0.00013283    0.00004265   -0.00045110
     atom   20 type  1   force =    -0.00008652   -0.00016472    0.00024028
     atom   21 type  1   force =     0.00010439    0.00005363   -0.00010666
     atom   22 type  1   force =     0.00032215    0.00017949   -0.00012805
     atom   23 type  1   force =     0.00024683    0.00027622   -0.00003349
     atom   24 type  1   force =     0.00009586    0.00009478   -0.00042782
     atom   25 type  1   force =     0.00036638    0.00010455   -0.00003511
     atom   26 type  1   force =     0.00039520    0.00025252    0.00070984
     atom   27 type  1   force =    -0.00017604    0.00003301    0.00023318
     atom   28 type  1   force =     0.00091304    0.00020235    0.00029485
     atom   29 type  1   force =     0.00019887    0.00013811   -0.00040647
     atom   30 type  1   force =     0.00024573    0.00057676    0.00022509
     atom   31 type  1   force =    -0.00002939    0.00003044    0.00015920
     atom   32 type  1   force =     0.00061571   -0.00008829    0.00022542
     atom   33 type  1   force =     0.00005609    0.00003941    0.00060571
     atom   34 type  1   force =     0.00024547    0.00013864    0.00058981
     atom   35 type  1   force =     0.00060555    0.00071134    0.00029882
     atom   36 type  1   force =     0.00001228   -0.00004909    0.00015404
     atom   37 type  2   force =     0.00005515   -0.00002770    0.00072787
     atom   38 type  2   force =    -0.00018892   -0.00015247    0.00036603

     Total force =     0.002529     Total SCF correction =     0.003331
     SCF correction compared to forces is large: reduce conv_thr to get better values

     negative rho (up, down):  1.357E-02 0.000E+00

     negative rho (up, down):  1.357E-02 0.000E+00

     negative rho (up, down):  1.357E-02 0.000E+00

     negative rho (up, down):  1.357E-02 0.000E+00

     negative rho (up, down):  1.357E-02 0.000E+00

     negative rho (up, down):  1.357E-02 0.000E+00

     negative rho (up, down):  1.357E-02 0.000E+00

     negative rho (up, down):  1.357E-02 0.000E+00

     negative rho (up, down):  1.357E-02 0.000E+00

     negative rho (up, down):  1.357E-02 0.000E+00

     negative rho (up, down):  1.357E-02 0.000E+00

     negative rho (up, down):  1.357E-02 0.000E+00

     negative rho (up, down):  1.357E-02 0.000E+00

     negative rho (up, down):  1.357E-02 0.000E+00

     negative rho (up, down):  1.357E-02 0.000E+00

     negative rho (up, down):  1.357E-02 0.000E+00

     negative rho (up, down):  1.357E-02 0.000E+00

     negative rho (up, down):  1.357E-02 0.000E+00

     negative rho (up, down):  1.357E-02 0.000E+00

     negative rho (up, down):  1.357E-02 0.000E+00

     negative rho (up, down):  1.357E-02 0.000E+00

     negative rho (up, down):  1.357E-02 0.000E+00

     negative rho (up, down):  1.357E-02 0.000E+00

     negative rho (up, down):  1.357E-02 0.000E+00

     negative rho (up, down):  1.357E-02 0.000E+00

     negative rho (up, down):  1.357E-02 0.000E+00

     negative rho (up, down):  1.357E-02 0.000E+00

     negative rho (up, down):  1.357E-02 0.000E+00

     negative rho (up, down):  1.357E-02 0.000E+00

     negative rho (up, down):  1.357E-02 0.000E+00

     negative rho (up, down):  1.357E-02 0.000E+00

     negative rho (up, down):  1.357E-02 0.000E+00

     negative rho (up, down):  1.357E-02 0.000E+00

     negative rho (up, down):  1.357E-02 0.000E+00
 BEEFens 2000 ensemble energies
             -0.605639872277603E+02
             -0.360977854444300E+01
             -0.158292752443222E+02
              0.428555489789581E+02
             -0.220844272647251E+02
             -0.205322738817110E+02
             -0.351249531523856E+02
             -0.863242632490152E+02
             -0.465473375429009E+02
             -0.472746429603222E+02
             -0.368586800315845E+02
              0.224588297127384E+01
              0.406581096237124E+01
              0.767850675821083E+01
              0.264794802826967E+01
              0.474195058803889E+02
             -0.208783510773772E+02
             -0.230890570394174E+02
              0.192228394098142E+02
             -0.112244982101787E+03
              0.535422141177324E+02
             -0.289741896898236E+02
             -0.331892086348020E+01
             -0.114074232931322E+02
             -0.889665928587544E+01
             -0.467785299151430E+01
              0.881690109081441E+02
             -0.185958409817555E+02
             -0.902653427264590E+01
             -0.517439730386100E+02
              0.815393696564440E+02
             -0.188073798984210E+02
             -0.374271167519904E+02
              0.249533278422103E+02
             -0.283064107729291E+01
              0.162902072157099E+02
             -0.488956509360844E+01
              0.108631500674597E+02
              0.286898877299445E+02
             -0.103183054707904E+03
              0.557517388965053E+02
              0.142226571604632E+02
             -0.163811713832581E+01
             -0.361548668156861E+02
              0.122914794218443E+02
             -0.146014013723266E+02
              0.397210387130352E+02
              0.364534950792287E+02
             -0.308401242389859E+02
             -0.274528368915293E+02
             -0.327641780000689E+02
             -0.351451022448688E+02
              0.135300204818762E+02
             -0.490200663573190E+02
              0.115102139393922E+02
              0.622354608518929E+02
              0.633620826440102E+02
              0.355500980437342E+02
              0.154202359659731E+02
              0.269664712714474E+02
              0.889936478791295E+02
              0.212972637982624E+02
             -0.547814369621412E+02
             -0.157360267841584E+02
             -0.235227468578162E+02
              0.629069963913310E+02
             -0.773087676236339E+02
             -0.670968385071230E+02
             -0.258254296686472E+02
             -0.636825489374394E+01
             -0.471075217079029E+02
              0.270276798085313E+02
              0.797692369548611E+01
              0.863535874127069E+01
             -0.396517561473894E+02
             -0.346262936127466E+02
             -0.540710658820048E+02
              0.390279844503823E+02
             -0.295075567358862E+02
              0.264262004744688E+02
             -0.711628043598902E+01
             -0.317878530563447E+02
             -0.576170344290396E+02
             -0.176547008063567E+02
             -0.900952481626530E+01
             -0.124794237664970E+02
              0.411702517547868E+02
              0.680928059626798E+02
             -0.384777336992295E+02
             -0.793722536969970E+02
             -0.219569759112318E+02
              0.111382011830985E+03
             -0.591398226108195E+02
              0.355758105582314E+02
             -0.954870304838755E+01
             -0.662949729159151E+02
              0.254216453477339E+02
              0.398289089269459E+02
             -0.198432886953456E+02
              0.400178337543812E+02
             -0.295950397437780E+02
             -0.476594942528134E+02
              0.863617530236712E+02
              0.453326750237941E+02
              0.336744910217676E+02
              0.146351134634995E+02
              0.204885571411185E+02
              0.855633383635997E+02
             -0.256395990829535E+02
              0.788055716911011E+01
             -0.142247735966311E+03
              0.181243106019715E+02
             -0.715511183021761E+02
              0.150750774081561E+02
              0.204228671642540E+02
             -0.332153517341309E+02
             -0.556688650600590E+02
              0.655754917893250E+01
             -0.303545233428991E+02
              0.306762046956329E+02
             -0.529336698192845E+02
              0.177054816358941E+01
             -0.356416055917822E+02
             -0.423888773614374E+01
             -0.107903189523816E+01
              0.180179170451177E+02
              0.141754612503951E+01
             -0.652838494234925E+01
              0.588904852096702E+02
              0.906813294311276E+02
              0.483221022825575E+02
              0.830372693876856E+02
             -0.115040100800154E+02
              0.143108300555249E+02
              0.540537027651507E+02
             -0.111698138118583E+02
             -0.734489180200841E+02
             -0.382888419251584E+02
             -0.520962710117721E+02
             -0.276266783554623E+02
              0.326935178605277E+02
             -0.116594038346973E+03
             -0.186992328950051E+02
              0.413140780530580E+02
             -0.385751500105841E+02
             -0.365067005342576E+02
              0.542860711903083E+02
              0.399962550041635E+02
             -0.353612914149567E+02
              0.136225707558460E+02
             -0.272683941268785E+02
              0.342536728274927E+02
              0.447336054005228E+01
              0.211639221472296E+02
             -0.883840401129027E+02
             -0.479729676614270E+02
             -0.994368879485421E+01
              0.327160794027203E+01
             -0.365997335183881E+02
              0.105831098621665E+03
             -0.231235895455256E+02
             -0.398561090267774E+02
              0.388507998720434E+02
             -0.493913684392957E+02
             -0.362498563229864E+02
              0.324320226536393E+02
              0.124172486279229E+02
              0.164540047433303E+02
              0.115864396390318E+02
             -0.132715049100028E+02
              0.225568857963330E+02
              0.589656728005615E+02
             -0.311613797147194E+02
              0.162084243876333E+02
              0.933253609129389E+02
              0.340111457978289E+02
             -0.730630818321106E+01
             -0.187921467570345E+02
              0.153108012931517E+03
             -0.163228930558774E+02
              0.362412045363699E+02
              0.193510661966549E+02
              0.361837208648275E+02
              0.890782597728846E+02
              0.542480226823327E+02
             -0.240437978024165E+01
              0.227039676843033E+02
              0.483713150261017E+02
              0.362865977324672E+02
             -0.524375343208353E+02
              0.934557337425005E+02
             -0.824281799077091E+02
             -0.198349390600826E+02
              0.582251671401602E+02
              0.665462286087637E+01
              0.788573998643722E+01
              0.340999150373977E+02
              0.299250380041076E+02
              0.353310833875191E+02
             -0.636806845474975E+02
              0.287883631006798E+01
             -0.297354310268209E+02
             -0.872203540082123E+01
             -0.143118848903100E+01
             -0.716070263508892E+01
             -0.412656260879692E+01
              0.858233156847173E+02
             -0.101260479180832E+02
             -0.275967603356792E+02
             -0.497882496130794E+01
              0.139655766725877E+02
             -0.562738069732884E+02
             -0.405527906215514E+02
             -0.381804731470398E+02
             -0.629050060558187E+02
             -0.169256699458372E+02
             -0.446989716079198E+02
              0.163207202574974E+02
             -0.241952084391893E+01
             -0.104147381820034E+02
             -0.933654551906972E+01
              0.808310107355982E+01
             -0.243391025886618E+02
              0.688304341720020E+02
             -0.805465881951624E+02
             -0.140837230019064E+02
             -0.174202300192438E+02
              0.181960498220809E+02
              0.213588285613182E+02
             -0.462868795613931E+02
             -0.201988641542285E+02
              0.440195177443124E+02
             -0.276212109468609E+02
              0.186649813871364E+02
              0.382704138642257E+02
             -0.321291812952950E+01
              0.113967099837606E+03
             -0.230586495793989E+02
             -0.340574703638916E+02
              0.581343645005757E+01
             -0.227485045563789E+02
              0.526737573118007E+02
             -0.335891556306416E+02
              0.106129983570418E+02
              0.640547761273824E+02
             -0.126296459953858E+02
              0.120043938183110E+03
              0.125668317204740E+03
             -0.648573573618323E+02
              0.589562874897395E+02
              0.165752380286938E+02
             -0.516719451498605E+02
              0.216284461694406E+02
              0.352622371675354E+02
              0.361569618966015E+02
              0.134732817786761E+01
              0.159065413144366E+02
              0.694266517429890E+02
             -0.246599091175355E+02
              0.181364613537778E+02
              0.738548675174878E+02
             -0.372253351429580E+02
             -0.128703591428992E+02
              0.507176275586755E+02
              0.296843629443460E+02
              0.779412426215664E+02
              0.221765710987358E+02
              0.618919291654834E+01
              0.280296367978469E+02
              0.382446973557924E+02
             -0.470299604112835E+02
              0.327317341633500E+01
              0.128408046060350E+02
              0.113277163438379E+02
              0.219961393470431E+02
             -0.573605530699989E+02
              0.365772035521999E+02
             -0.443305155577953E+02
             -0.346825949048277E+02
              0.177294822125158E+02
             -0.181809357618549E+02
              0.553637659082303E+02
             -0.256562553888663E+02
              0.266160840331735E+02
              0.367977720071816E+02
              0.828194231726714E+02
              0.574018996373167E+02
              0.460857028002675E+02
             -0.106371576667496E+02
             -0.384842465373112E+01
             -0.331710605815946E+02
              0.749016937933926E+02
              0.795886329066618E+02
              0.361066021740612E+02
             -0.191180309290843E+02
              0.511165557772280E+02
             -0.163527365333122E+02
              0.215030542319250E+02
              0.613141195655336E+02
              0.214241434273765E+01
             -0.104333946021301E+02
             -0.283108913662359E+02
             -0.509940313611049E+02
              0.943646597995878E+02
              0.438364444315831E+02
             -0.557581452063345E+02
             -0.955282408370488E+01
              0.249800971583556E+02
             -0.997304638515612E+01
              0.590917794950430E+02
              0.151995018348479E+02
              0.797959385335644E+02
              0.278627840500934E+02
             -0.264001370896223E+02
              0.249038328567998E+02
             -0.501010482266423E+01
             -0.323698676285375E+02
              0.132986324742556E+02
              0.205800291281927E+02
              0.931131429670646E+02
              0.796347520432525E+02
              0.549950111330369E+02
              0.730115812930874E+02
              0.798970648138433E+01
             -0.273274129010415E+02
              0.162927010875289E+02
             -0.367839637855033E+02
             -0.474977359865435E+02
             -0.562973136758662E+02
             -0.265995528494192E+02
             -0.109554227129532E+03
             -0.290389908082480E+02
             -0.835778369587123E+02
              0.209503375166718E+02
             -0.476525989151782E+02
              0.395625736540769E+02
             -0.939483110152434E+02
             -0.329529768800729E+02
              0.548803577542201E+02
              0.207312424289023E+02
             -0.828791805308213E+02
              0.630717642843954E+02
             -0.256213537770776E+02
              0.511647420732507E+02
             -0.242633789815932E+02
             -0.750033165176071E+02
              0.111874927214924E+02
             -0.610364607898554E+02
             -0.168888728298372E+02
             -0.146820436675616E+01
              0.417955408891080E+02
              0.126817042154066E+03
             -0.461288759069227E+02
             -0.362089204580404E+02
             -0.955038659132583E+00
             -0.130519587780835E+02
             -0.821351421792754E+02
             -0.596225576220154E+02
              0.516650534376997E+02
             -0.289215742763059E+02
              0.168410598034840E+02
             -0.488836227677357E+02
             -0.131543567196783E+02
             -0.436817197835938E+02
              0.564983041108266E+02
              0.151257278653247E+02
             -0.231133805781674E+02
             -0.126324252103271E+02
              0.662558703317376E+01
             -0.620506946158974E+01
              0.441236778865190E+02
             -0.251757437335916E+02
              0.269703883994657E+01
              0.338476546343657E+02
              0.171501465417465E+02
             -0.158994189478130E+02
              0.156048953666733E+03
              0.536660688684614E+02
              0.112103131762532E+01
              0.161901380973253E+02
             -0.613862915499433E+02
              0.314424059435260E+02
             -0.720289451101771E+02
             -0.251276777857767E+02
             -0.521452621169107E+02
             -0.219720797015339E+02
              0.567952324660528E+02
             -0.536024879155956E+02
              0.159968220871599E+02
             -0.405101629084606E+01
              0.389590822605146E+01
             -0.433844887774439E+02
             -0.477840138131874E+02
             -0.396030967629349E+01
             -0.425207994507733E+02
             -0.217020801708211E+02
             -0.437876338924049E+02
             -0.119439255846637E+02
             -0.358654368244904E+02
             -0.515948540301224E+02
              0.212805913963632E+02
             -0.209700319588682E+02
              0.187214943897317E+02
              0.975156429838685E+01
             -0.736692669194990E+02
             -0.547638588683175E+02
             -0.396794360995138E+02
              0.354227597664053E+02
              0.275860302212874E+01
             -0.626178261785764E+02
              0.584670219183042E+02
             -0.400417683954681E+02
              0.543438657874051E+02
             -0.288947174313304E+02
             -0.445360822438400E+02
              0.298547410859506E+02
             -0.656485769823159E+02
             -0.379681591226952E+02
              0.672381356135811E+02
              0.203560428519631E+02
             -0.358888489947097E+02
              0.488434723153293E+02
             -0.173788357816239E+02
             -0.321992544777277E+02
             -0.301526326925108E+02
             -0.499808594026006E+02
              0.248780314785064E+02
             -0.931799475275504E+02
             -0.839555485784687E+02
             -0.731648685377979E+01
             -0.306341197807032E+02
             -0.574612246271553E+02
              0.720618670605434E+02
              0.131300492357368E+03
             -0.361247747034827E+02
             -0.252749823575994E+01
             -0.636522806052817E+02
              0.649403867532653E+02
              0.170356143480606E+02
             -0.181118347187106E+02
             -0.409658917018529E+02
              0.148504308031457E+02
             -0.585470352362761E+02
             -0.197703644298605E+02
             -0.903906403285077E+02
              0.336471145151195E+02
              0.169244626081671E+02
              0.186497390158877E+01
             -0.699352241813904E+01
             -0.328556749786596E+02
             -0.752874348905476E+01
              0.125269678078637E+03
             -0.198866740532471E+02
             -0.436284912793059E+02
             -0.682769798678840E+02
              0.108824811538182E+02
             -0.341239202728874E+02
              0.586399303370909E+01
              0.260808318681044E+02
              0.102066688453569E+02
              0.277063539283405E+02
              0.119311680271331E+02
              0.628774876023427E+02
              0.316802363232223E+02
             -0.325702073812349E+02
              0.353826766218627E+02
              0.379243697241056E+02
              0.120802490266545E+02
              0.486827528280966E+02
             -0.223714127247959E+02
              0.764992099973987E+02
              0.171632514495224E+02
             -0.271473901948487E+02
             -0.723216282815628E+01
             -0.186031069231265E+02
              0.261999515636957E+02
             -0.234351469658519E+02
             -0.532465398061106E-01
             -0.847009753805730E+01
              0.808459613343655E+02
              0.499055279244889E+02
             -0.686853515540570E+02
             -0.473140362590664E+01
             -0.555223478017778E+02
             -0.159580985835094E+02
             -0.268179657496823E+02
              0.372014245155208E+01
              0.581506796780804E+00
             -0.256995939348622E+02
              0.807685501248380E+01
             -0.600903420577966E+01
             -0.128879117997736E+02
              0.857703958670304E+02
              0.181827968076079E+02
             -0.805198282336911E+02
             -0.458042802707080E+02
              0.943133993964168E+02
              0.277480391393069E+02
             -0.106756832999506E+02
              0.104380844742137E+03
             -0.195067433017938E+02
             -0.123041530211193E+02
             -0.534476296858952E+01
              0.107118042205001E+02
              0.271414552587521E+02
              0.782251245295163E+01
              0.305095079955303E+02
             -0.188051944767729E+02
             -0.302588306009523E+02
             -0.417016206727466E+02
             -0.476310648390273E+02
              0.463594304596298E+02
              0.126729240436598E+02
              0.387082878069827E+02
              0.133174311986855E+02
              0.854100019468016E+02
              0.156036973284607E+02
             -0.844875805844979E+02
             -0.334031143138208E+02
              0.134270378265460E+02
             -0.302626339408090E+02
              0.625548398648237E+02
             -0.883453288929559E+01
              0.148595070559920E+02
              0.496265413938505E+02
             -0.705807577173761E+02
              0.149548655534159E+03
              0.208422587486860E+02
              0.271073496981177E+02
              0.346893847978558E+02
              0.104091131289866E+02
             -0.157751493466532E+01
              0.358331744256117E+02
             -0.356512030457062E+02
              0.771459768527125E+02
              0.683332017300609E+02
             -0.405401104868938E+02
              0.149409542875634E+02
              0.669076176332002E+02
             -0.223808909190536E+02
              0.153714280301318E+02
              0.435215694048880E+02
              0.421897558579831E+02
             -0.783876649663039E+02
             -0.152922480691660E+02
             -0.356327148218379E+02
             -0.147531411413053E+01
             -0.764951452766464E+01
             -0.552657703757825E+01
             -0.180938252485512E+02
             -0.293124456688474E+02
              0.626340535021072E+01
              0.111878657903284E+02
              0.534939174351707E+02
             -0.389262923878865E+02
              0.373102882633826E+02
              0.437574370823644E+02
             -0.187205442377321E+02
              0.871666987385131E+02
             -0.696909274453640E+02
             -0.103025420189383E+03
             -0.654623450792873E+01
             -0.266734495075070E+01
              0.388493311068157E+01
              0.788071019918536E+02
             -0.107462699161374E+02
              0.415912227459133E+02
              0.442290539254491E+02
              0.384720683922866E+02
             -0.992684792507544E+01
              0.627208009931434E+02
             -0.133292165258135E+02
             -0.306575639388020E+02
             -0.479700960919022E+02
              0.584474412438834E+01
              0.369684062525944E+02
             -0.603795664618684E+01
              0.392999443562230E+02
             -0.174285483446488E+01
              0.654866926018936E+02
              0.187479818217780E+02
              0.996438488746128E+01
             -0.122220889924315E+02
              0.331955508410575E+02
              0.361927797346847E+02
              0.232865376945812E+02
             -0.504787508802963E+00
             -0.549745175145093E+02
              0.260076155281738E+02
              0.174771245736259E+02
              0.402643402417660E+02
              0.271859450617424E+02
              0.371903992415367E+02
             -0.603390676111243E+01
              0.250074282858237E+02
             -0.297978073341799E+02
             -0.197864240546335E+01
             -0.568683714104604E+02
             -0.307430586551534E+02
              0.378161302041371E+02
             -0.934545831284354E+02
              0.294386259689573E+02
              0.183945578547027E+02
              0.838646062557961E+02
             -0.301297015669707E+02
              0.328783334035141E+02
             -0.137610487672928E+02
             -0.463112082074900E+02
             -0.761308823344650E+02
             -0.518630496618182E+01
             -0.858520582498977E+02
              0.200135675229058E+02
             -0.247291378611672E+02
              0.305176334658687E+02
              0.236158892384199E+02
             -0.240400279365826E+02
             -0.264672649423501E+02
              0.390368360016504E+02
             -0.587209411418117E+02
             -0.116205243527299E+02
             -0.195914548085333E+02
              0.212078659473141E+02
             -0.899190800130464E+01
              0.360810878822303E+01
             -0.200712729377111E+02
              0.557968993869860E+02
             -0.437766456855870E+02
              0.788232728982973E+01
              0.584253091669383E+02
             -0.322566408185175E+02
              0.358246934505379E+01
             -0.886351159909611E+01
             -0.668858256752596E+02
             -0.482730916842849E+02
             -0.864292237671125E+01
              0.239994743531047E+02
              0.301492195144530E+02
              0.859989368599338E+01
             -0.409303400713929E+01
              0.151825815320823E+02
             -0.439762605809660E+02
              0.336032748692696E+01
             -0.530455400015467E+02
             -0.324341479536149E+02
              0.473799387969525E+02
             -0.294678608629537E+02
              0.621022431513261E+02
             -0.214116370119299E+02
              0.353577201928566E+02
              0.241325949920672E+02
             -0.643315049588316E+02
             -0.280432827316428E+02
              0.929398396178266E+01
             -0.370613431726453E+02
             -0.339072503304118E+02
             -0.828271938287912E+02
             -0.538688830092730E+02
             -0.509776973686091E+02
             -0.414859750366198E+02
             -0.982373287500309E+00
              0.986891432094555E+01
              0.961885557483498E+00
              0.152276051644251E+02
             -0.548436069206513E+02
              0.141508461674928E+02
              0.255775616416716E+02
             -0.665945812023776E+02
             -0.701597618542999E+02
             -0.430607930943336E+02
             -0.170822424723682E+02
              0.178566883664603E+02
              0.457322447775402E+01
             -0.425817114178545E+02
              0.366311409627846E+02
             -0.215688748880160E+02
              0.516813511224617E+02
             -0.885811795342327E+02
              0.596254263856429E+02
             -0.204508303216735E+01
             -0.367715291356643E+02
             -0.216033314612064E+02
              0.472299980613843E+01
              0.373684536926945E+02
             -0.755480790579115E+02
             -0.120612086868188E+02
             -0.216460366972796E+02
              0.510881026893759E+02
              0.863683767958875E+02
             -0.963472446858082E+02
              0.942935547779854E+02
              0.467743052844962E+02
             -0.724396837043142E+02
             -0.366419126750909E+02
              0.750702987221419E+02
              0.631428767565617E+02
             -0.180677313152262E+02
             -0.463661608613938E+01
              0.727080776732504E+01
              0.647599444677263E+02
             -0.507350213159472E+02
              0.158445376425362E+02
             -0.469223692341824E+01
              0.347891746967938E+02
             -0.746036910913698E+02
             -0.649238698058505E+01
             -0.351173774318245E+02
              0.459991761374926E+02
              0.468562782538820E+02
             -0.860253675174791E+02
             -0.486375335645594E+02
             -0.256169124516641E+02
             -0.338314560954875E+02
             -0.109191877820289E+02
             -0.243170036183399E+02
              0.426736879653284E+02
              0.400686594141352E+02
             -0.568407987874451E+01
             -0.415381504575783E+02
             -0.848967268124652E+02
              0.442196401175694E+02
             -0.522937445750073E+02
             -0.312225113116904E+02
              0.545506002539881E+01
             -0.321637061134019E+02
             -0.397309685178807E+02
             -0.239516608335809E+02
             -0.384201757688800E+02
             -0.270606476952235E+02
             -0.482002042627983E+02
              0.563344169823329E+02
              0.637843931879108E+02
             -0.166717655795867E+01
             -0.261215982518012E+02
             -0.629517308701679E+01
              0.440802481357766E+02
             -0.867047745840194E+02
             -0.145828884068910E+02
              0.523254039659060E+02
              0.662065682073292E+02
             -0.245022226214935E+02
              0.915734913780273E+01
              0.522655511023823E+02
              0.198093995041473E+02
             -0.832703893180206E+01
             -0.452696267819700E+02
              0.280691782751646E+02
             -0.352267791063939E+02
             -0.165299265480422E+02
             -0.152449324670197E+02
             -0.200254933624659E+02
              0.194126361968532E+02
              0.799383930700059E+02
              0.191827881377853E+01
              0.535322301635281E+01
             -0.886153469853922E+02
             -0.175668342470531E+02
             -0.352211458006516E+02
              0.279770096720029E+01
             -0.408617909881114E+02
              0.728608350253681E+02
              0.783352362910410E+02
              0.123673730402723E+02
             -0.140762911019378E+02
              0.143484537548264E+02
              0.260440579288188E+02
             -0.481331486757512E+02
             -0.868901654216756E+01
              0.137394136855584E+02
              0.164719527256386E+02
              0.562845201980637E+02
              0.421502098342671E+02
             -0.197796782808092E+02
              0.331310394589015E+02
             -0.966818171335693E+02
             -0.564431048719442E+00
              0.846282078668780E+02
              0.909338515154406E+01
              0.143983544709533E+01
              0.335187752431845E+02
             -0.297801747745686E+02
              0.957993387102687E+02
             -0.120020734217245E+02
              0.869024390469343E+02
              0.379782288163235E+02
             -0.391987720688350E+02
              0.314343369454643E+02
             -0.333364902916454E+02
             -0.717510049658576E+02
             -0.654476092791515E+01
             -0.541743085208529E+02
             -0.547328218544222E+02
             -0.682595190817730E+01
              0.294453949338863E+02
             -0.501638068649669E+01
             -0.359732744664094E+02
              0.114576604220592E+02
             -0.737225563949045E+02
             -0.101173813931599E+02
             -0.828096421562243E+02
              0.488430287030781E+02
              0.206863468463018E+01
             -0.483620419235490E+02
             -0.230736189825265E+02
              0.212126424779382E+02
             -0.300227633614631E+02
             -0.455075138089558E+02
              0.906454219779352E+02
             -0.198015192767457E+02
             -0.470587633978621E+02
              0.248925717059417E+02
             -0.104557809688409E+02
              0.485414431010641E+02
             -0.318411808643134E+01
              0.123877951304917E+02
              0.101486025127547E+03
             -0.200703783219979E+02
[...]
              0.283463342748943E+02
              0.141619259746373E+03
              0.241694561291804E+02
              0.122232723679382E+02
             -0.463900554970244E+02
             -0.637120207236541E+02
             -0.188912269442841E+02
              0.329168785108177E+02
             -0.426373888033118E+01
              0.188987084744586E+02
              0.335348073313730E+02
             -0.585902447311031E+02
              0.221923571585032E+02
              0.582571793449424E+02
              0.552391809348860E+02
             -0.416936922335663E+01
             -0.141159534686108E+01
             -0.994136147822672E+01
             -0.481915479856889E+02
             -0.673738281269378E+02
              0.784615902588048E+02
             -0.520456225830173E+01
             -0.587315051459632E+02
              0.165332267355780E+01
             -0.204577256921202E+02
              0.937395198524046E+02
             -0.215891062646316E+02
             -0.352800409892394E+02
              0.334316511836956E+02
             -0.145315729998985E+02
              0.388743284862342E+02
             -0.243890790378032E+01
              0.100985949907880E+03
              0.488423157108699E+02
             -0.521344484755394E+01
             -0.321041163484823E+02
              0.231729043638441E+02
             -0.527625416648799E+02
             -0.128018676163152E+02
              0.584573380524323E+02
             -0.287258227054697E+02
             -0.437760185711140E+02
             -0.222656838421108E+02
              0.517968076025411E+02
              0.124848866270896E+02
             -0.847963504531464E+02
              0.303412225124447E+02
              0.152404851506569E+02
              0.573058948844209E+01
             -0.512665782384257E+02
             -0.381603985303576E+01
              0.322578636360348E+02
              0.512635779455411E+02
              0.631104159067225E+02
              0.228034973694247E+02
              0.745956089402000E+00
             -0.496811689330303E+02
             -0.509472192109573E+02
             -0.747519433634348E+02
             -0.606496755010244E+01
              0.308320709687483E+02
             -0.382890496821216E+01
              0.546053057865990E+02
             -0.317415131230096E+02
              0.166176289703559E+02
             -0.101725317019704E+02
             -0.289067379051349E+02
              0.584628212428567E+02
              0.792620696161725E+01
              0.602907544987509E+02
              0.509376221957507E+01
              0.264985011706129E+02
             -0.192401150381794E+02
              0.585263339046044E+02
             -0.110773066889822E+02
             -0.147009013257259E+00
             -0.788874025666352E+02
             -0.128477374625946E+02
              0.718216383975394E+02
              0.672600665061051E+02
              0.251047824070782E+02
             -0.129985845969339E+02
              0.338727207414851E+01
             -0.172722405621678E+02
             -0.194625987060391E+01
              0.906086084937802E+02
              0.119740227966588E+01
             -0.189523705268851E+02
             -0.110609274730589E+03
             -0.552720071961271E+02
             -0.374290228896422E+02
             -0.657982680758630E+02
             -0.554364280300750E+02
             -0.681675282349694E+02
             -0.446261927229421E+02
             -0.410831059872567E+02
             -0.450944107914888E+02
              0.482893377966909E+02
             -0.294446749123906E+02
             -0.995445747531776E+02
              0.418426983399832E+02
             -0.259119420491740E+02
             -0.789536531507820E+02
              0.942274002012721E+02
             -0.219070879738822E+02
              0.228174353060597E+02
              0.455023833649571E+02
             -0.143744971866454E+01
              0.253622141237161E+02
              0.471927501764227E+01
              0.411137011112146E+00
             -0.150248283321905E+02
             -0.714245562810430E+02
              0.133212596459986E+02
             -0.129244913937200E+03
              0.622297618429268E+02
             -0.439939003598050E+02
             -0.162294848451832E+02
             -0.157512293355367E+02
              0.704754366517514E+01
             -0.227710324273478E+02
              0.296992618825755E+02
             -0.519321239893641E+02
              0.366889176319805E+02
              0.369811852620519E+02
              0.168802980887941E+02
              0.100257027161819E+02
              0.197429503205094E+02
              0.617061690489095E+01
              0.310152855629886E+02
             -0.801553293645907E+01
             -0.590072230696763E+02
              0.756346180077259E+01
             -0.151585491628871E+02
             -0.192042965272606E+01
              0.504773045903280E+02
             -0.825769616526178E+02
             -0.152967814964461E+01
              0.546255702426834E+00
              0.993603310025406E+01
              0.318009982691178E+02
             -0.123374132519087E+02
              0.834349216176165E+02
              0.487913692000384E+02
             -0.183354656199006E+02
             -0.958657661777977E+01
              0.103966279730821E+01
              0.768433351809217E+02
             -0.585727478729507E+02
             -0.105629571176387E+03
              0.308757070608635E+02
             -0.162826889833124E+02
             -0.139070403901012E+02
              0.129990692373644E+02
              0.767515147990172E+02
              0.463691594398198E+02
             -0.153178144772953E+02
             -0.501806246598136E+02
             -0.543986116332931E+01
              0.306047812434790E+02
             -0.111059738014799E+02
             -0.754322125271196E+02
             -0.265218596640756E+01
             -0.887795642886012E+02
             -0.474472008339881E+02
              0.766360489599654E+02
             -0.482433122953252E+02
             -0.635009558420294E+02
             -0.513534059544260E+02
             -0.348772875048807E+02
              0.340275389908113E+02
              0.820070566229159E+02
             -0.350214936403063E+01
              0.276097108397520E+02
             -0.183209900778230E+02
             -0.692610424617484E+02
              0.464082535587955E+02
             -0.443952495206363E+02
              0.321830985435503E+02
              0.376189877820771E+02
             -0.650582537022626E+01
              0.390414205642154E+02
              0.438076371961395E+02
              0.100364863869315E+03
             -0.156284082755437E+02
             -0.454219645792007E+02
             -0.611503808732513E+02
             -0.123199643090711E+02
             -0.231532290895782E+02
              0.102908990989310E+03
             -0.448198637128249E+02
              0.104978789674666E+02
              0.974931389748838E+01
             -0.264510948849364E+02
             -0.796832453050192E+02
             -0.698439178132026E+01
              0.978004535495353E+02
              0.929452793133220E+01
              0.809727012290921E+01
             -0.525328124635815E+02
             -0.604442581976593E+02
             -0.555088333666558E+01
              0.499555414192399E+02
             -0.221340268546804E+02
              0.107820713642590E+03
             -0.434274179330592E+02
              0.145870571521834E+02
             -0.224446214287071E+02
             -0.717497848773440E+02
              0.165060816759041E+01
             -0.500445744444307E+02
             -0.759345306038711E+02
              0.610327339448992E+01
              0.235318935808763E+01
              0.513262397747363E+02
              0.186527671464760E+02
             -0.322765621796612E+02
              0.229889634801409E+02
             -0.808789257491807E+02
             -0.521170700169994E+02
              0.900153143194137E+02
              0.142775723865339E+02
             -0.188474023366949E+02
             -0.352380418097829E+02
             -0.269035369259404E+01
             -0.581852629008813E+01
              0.828037679845598E+02
              0.416892552318772E+02
             -0.166321023047011E+02
             -0.122543553233528E+02
             -0.427335119351560E+02
             -0.200971055997259E+02
             -0.669187291807349E+02
              0.458548808114250E+02
              0.544655223019168E+01
              0.144992635993182E+02
              0.155405414905024E+02
             -0.498380044106987E+00
             -0.167807145515929E+02
             -0.318421599530189E+01
             -0.100183922122298E+03
             -0.229921114621418E+02
             -0.760010831622117E+01
             -0.947803614931911E+01
              0.546000480510739E+02
              0.622359503386066E+02
              0.164370086756861E+02
             -0.969037018404694E+02
              0.646419639727551E+02
             -0.214587535057284E+02
             -0.376304608831904E+02
             -0.862598522731827E+02
             -0.387085770816929E+02
              0.562793042882363E+02
              0.243298237674750E+02
              0.509793811313898E+01
              0.291443466969000E+02
             -0.563927813666217E+02
             -0.421136114876805E+02
              0.513811503672638E+02
              0.386440321021605E+02
              0.518259410309234E+02
             -0.132261268755371E+01
              0.680708038304584E+01
              0.568621188133848E+02
              0.961019410665850E+02
             -0.300383735636379E+02
              0.321737502451340E+02
             -0.116964159187321E+02
             -0.411404844627802E+02
             -0.313413121483688E+02
             -0.299199921737481E+02
             -0.130981201472513E+02
             -0.522675117768993E+02
             -0.217182249786289E+02
             -0.140962898306812E+03
              0.368498352195800E+02
              0.206065265824184E+02
             -0.392070643803621E+01
             -0.379361841279845E+02
             -0.204131932624561E+02
             -0.525423159616116E+02
              0.151466333869089E+02
              0.818700719681319E+02
             -0.252028373328802E+02
             -0.162486528492537E+02
              0.237516930421250E+02
             -0.488257869484055E+02
              0.879266960322491E+02
              0.154315946059646E+02
              0.226791436256840E+02
              0.489320161114748E+02
              0.326707248665537E+01
              0.540923675835674E+02
              0.142327440743491E+02
             -0.106898389736561E+02
              0.727421302574373E+01
              0.856036908640931E+00
              0.726486582302927E+02
              0.101054231729331E+02
              0.119743028344853E+02
             -0.129913127285111E+02
              0.132264289096767E+02
             -0.909537302442455E+02
             -0.325336795677332E+02
             -0.456263273497592E+02
              0.484654532842416E+02
             -0.290271788582194E+02
             -0.658017061578491E+02
              0.537089822377807E+02
             -0.121987860984233E+02
              0.439406934911681E+02
             -0.897339191403890E+02
              0.232091931814075E+02
              0.859073672094894E+01
              0.577777170462832E+01
             -0.827194428182685E+01
             -0.901890200860282E+01
              0.478660301940855E+02
              0.201153772204725E+01
             -0.473595867039661E+02
             -0.175552613068375E+02
              0.276830318315625E+02
             -0.117739070589076E+03
             -0.928499653578938E+02
              0.398195328398805E+01
              0.117043184866234E+02
             -0.411735706867267E+02
             -0.391950630932917E+01
              0.111968149069145E+03
              0.306391795274130E+02
             -0.570668869560923E+02
              0.924354233470365E+01
             -0.962303019219101E+01
              0.105286975826982E+02
             -0.336617356455839E+02
              0.194672304982731E+02
              0.284197857446620E+02
             -0.296490700903092E+01
              0.107943920369398E+03
             -0.140656175969360E+02
             -0.315636240225637E+02
              0.141944292756931E+02
              0.466059734086685E+02
             -0.355622572868651E+02
             -0.317415182806502E+01
              0.962900585965443E+02
             -0.468121658927873E+01
              0.620750097924052E+02
              0.135101211208810E+02
             -0.903193148875177E+01
             -0.305332566469283E+02
              0.566085177824172E+02
             -0.513070248219287E+02
             -0.222911847239618E+01
             -0.169601946748532E+02
             -0.404660346188584E+02
              0.184683072324075E+02
              0.238414446479092E+02
              0.116508228249253E+02
              0.729767161670111E+00
             -0.383353516595719E+02
              0.215419892072051E+02
             -0.676345000912394E+01
             -0.246335328004218E+02
             -0.210409290974371E+02
              0.203570821546922E+02
             -0.598574061735962E+01
             -0.348360314951968E+02
             -0.106419153267622E+03
              0.102576928133832E+02
              0.249097603043761E+02
             -0.385950877919259E+02
             -0.210232529051111E+02
              0.805364182076497E+02
              0.645010082600299E+01
              0.309406266437616E+02
              0.384400937142763E+01
              0.320833044829428E+02
              0.647392923426003E+01
             -0.372200642292192E+02
             -0.223625499307289E+01
              0.875967583529007E+01
              0.273060381419747E+02
              0.781028271622343E+02
              0.506613321438278E+02
              0.165333275656167E+00
              0.168787075364579E+02
              0.612006095581140E+02
              0.235157844856193E+02
             -0.752017581828172E+02
             -0.273371623448423E+02
              0.151238589230718E+02
              0.558656052950391E+01
              0.254495514093691E+02
             -0.547152232395538E+02
              0.900225957984510E+01
              0.384836628729327E+02
              0.497229137266777E+02
             -0.434189932252743E+02
             -0.695305168387745E+01
             -0.206990034767500E+01
             -0.133354034641742E+02
             -0.365507874604390E+02
             -0.215320131476718E+02
             -0.193094116464458E+01
              0.789711727268099E+01
              0.420578424048726E+02
             -0.307565866271337E+02
              0.824664068607510E+02
              0.326860406895439E+02
              0.218986455067912E+02
              0.332128598411584E+02
              0.323215855330781E+02
              0.345087325824675E+02
              0.536183644199394E+02
             -0.433004499813759E+02
              0.618391443074367E+02
             -0.112038679169771E+03
              0.306958573845824E+02
             -0.106350470836997E+03
              0.853342052948832E+02
              0.689030958922220E+02
             -0.109769418657298E+02
             -0.492723194099829E+02
             -0.428646349234868E+02
             -0.622946179588662E+02
             -0.627324738685248E+02
              0.550662721971986E+02
              0.404648851628622E+02
              0.236371229340254E+02
              0.373965784999423E+02
              0.401806638427548E+02
             -0.381305123991809E+02
             -0.197751654961068E+02
              0.585562054934179E+02
             -0.115669105249596E+02
              0.550803396666722E+02
              0.697591807830166E+02
             -0.551694704505926E+01
             -0.704689632021347E+02
             -0.957130182011724E+00
             -0.246890656524383E+01
             -0.880302736655563E+01
             -0.179966604691805E+01
             -0.651959793538643E+02
             -0.211286466382308E+02
              0.534012381485490E+01
              0.892127788304217E+01
              0.467743829064123E+02
             -0.396754161774386E+02
              0.657430102702785E+02
             -0.424694447754210E+02
              0.209511853108074E+02
              0.349371746829187E+02
 
 BEEF-vdW xc energy contributions
           1 :   -781.988914406325     
           2 :    718.757994079792     
           3 :   -609.133771479476     
           4 :    479.849863036472     
           5 :   -358.194154475349     
           6 :    263.940454870222     
           7 :   -204.840346373660     
           8 :    176.550618416419     
           9 :   -166.566750173958     
          10 :    160.306759533734     
          11 :   -146.874031386345     
          12 :    122.331341597780     
          13 :   -89.6198791845254     
          14 :    55.7180963140144     
          15 :   -27.6796146661924     
          16 :    9.34952960270584     
          17 :  -3.064948889903008E-002
          18 :   -4.61436001540358     
          19 :    10.0992345416659     
          20 :   -20.3908602256982     
          21 :    36.1854261291288     
          22 :   -54.8717282461740     
          23 :    72.0308852776284     
          24 :   -83.6489883436378     
          25 :    87.9558756502383     
          26 :   -86.0753311254022     
          27 :    81.2754286394673     
          28 :   -77.2821262856224     
          29 :    76.5114001573767     
          30 :   -79.0523490885539     
          31 :   -85.5349682022918     
          32 :   -65.6058456773334     

     Writing output data file ./pwscf.save/
 
     init_run     :    310.42s CPU    314.48s WALL (       1 calls)
     electrons    :  10886.74s CPU  10984.78s WALL (       1 calls)
     forces       :     93.29s CPU     94.38s WALL (       1 calls)

     Called by init_run:
     wfcinit      :    263.97s CPU    267.12s WALL (       1 calls)
     potinit      :     43.83s CPU     44.16s WALL (       1 calls)
     hinit0       :      0.96s CPU      0.98s WALL (       1 calls)

     Called by electrons:
     c_bands      :   9105.79s CPU   9182.78s WALL (      17 calls)
     sum_band     :   1214.66s CPU   1224.08s WALL (      17 calls)
     v_of_rho     :     92.53s CPU     95.73s WALL (      17 calls)
     newd         :     23.54s CPU     32.23s WALL (      17 calls)
     PAW_pot      :    112.88s CPU    112.89s WALL (      17 calls)
     mix_rho      :    381.93s CPU    382.42s WALL (      17 calls)
     vdW_kernel   :     33.46s CPU     33.47s WALL (       1 calls)

     Called by c_bands:
     init_us_2    :     60.82s CPU     61.09s WALL (     468 calls)
     cegterg      :   8465.39s CPU   8542.05s WALL (     221 calls)

     Called by *egterg:
     cdiaghg      :     85.18s CPU     85.21s WALL (    1296 calls)
     h_psi        :   5455.09s CPU   5482.01s WALL (    1322 calls)
     s_psi        :    898.82s CPU    898.84s WALL (    1322 calls)
     g_psi        :     14.13s CPU     14.14s WALL (    1088 calls)

     Called by h_psi:
     h_psi:calbec :    843.94s CPU    844.06s WALL (    1322 calls)
     vloc_psi     :   3689.57s CPU   3690.87s WALL (    1322 calls)
     add_vuspsi   :    899.11s CPU    899.17s WALL (    1322 calls)

     General routines
     calbec       :   1231.51s CPU   1231.67s WALL (    1595 calls)
     fft          :     45.08s CPU     45.09s WALL (    3037 calls)
     ffts         :    122.46s CPU    122.48s WALL (    8942 calls)
     fftw         :   3744.55s CPU   3745.33s WALL (  295231 calls)
 
     Parallel routines
 
     PWSCF        :      3h 9m CPU      3h11m WALL

 
   This run was terminated on:  12:42:21  21Dec2022            

=------------------------------------------------------------------------------=
   JOB DONE.
=------------------------------------------------------------------------------=
