
     Program PWSCF v.6.7MaX starts on 16May2022 at  9:38:21 

     This program is part of the open-source Quantum ESPRESSO suite
     for quantum simulation of materials; please cite
         "P. Giannozzi et al., J. Phys.:Condens. Matter 21 395502 (2009);
         "P. Giannozzi et al., J. Phys.:Condens. Matter 29 465901 (2017);
          URL http://www.quantum-espresso.org", 
     in publications or presentations arising from this work. More details at
     http://www.quantum-espresso.org/quote

     Parallel version (MPI), running on     1 processors

     MPI processes distributed on     1 nodes
     Reading input from och2ch3ads_ensemble.in
Warning: card &CELL ignored
Warning: card / ignored

     Current dimensions of program PWSCF are:
     Max number of different atomic species (ntypx) = 10
     Max number of k-points (npk) =  40000
     Max angular momentum in pseudopotentials (lmaxx) =  3
     file Pt.pbe-n-kjpaw_psl.1.0.0.UPF: wavefunction(s)  6S 5D renormalized
     file O.pbe-nl-kjpaw_psl.1.0.0.UPF: wavefunction(s)  2S 2P renormalized
     file C.pbe-n-kjpaw_psl.1.0.0.UPF: wavefunction(s)  2S 2P renormalized
     file H.pbe-kjpaw_psl.1.0.0.UPF: wavefunction(s)  1S renormalized

     **************************************************************************
     Initializing libbeef V0.1.2 with the BEEF-vdW functional.
     Citation: Wellendorff et al., PRB 85, 235149 (2012).
     **************************************************************************


     IMPORTANT: XC functional enforced from input :
     Exchange-correlation= BEEF-VDW
                           (   1   4  43  14   2   0   0)
     Any further DFT definition will be discarded
     Please, verify this is what you really want


     Subspace diagonalization in iterative solution of the eigenvalue problem:
     a serial algorithm will be used

 
     G-vector sticks info
     --------------------
     sticks:   dense  smooth     PW     G-vecs:    dense   smooth      PW
     Sum        4267    4267   1159               765131   765131  107823
 


     bravais-lattice index     =            0
     lattice parameter (alat)  =      16.0349  a.u.
     unit-cell volume          =   12178.4024 (a.u.)^3
     number of atoms/cell      =           44
     number of atomic types    =            4
     number of electrons       =       379.00
     number of Kohn-Sham states=          228
     kinetic-energy cutoff     =      60.0000  Ry
     charge density cutoff     =     240.0000  Ry
     scf convergence threshold =      1.0E-06
     mixing beta               =       0.7000
     number of iterations used =            8  local-TF  mixing
     Exchange-correlation= BEEF-VDW
                           (   1   4  43  14   2   0   0)

     celldm(1)=  16.034858  celldm(2)=   0.000000  celldm(3)=   0.000000
     celldm(4)=   0.000000  celldm(5)=   0.000000  celldm(6)=   0.000000

     crystal axes: (cart. coord. in units of alat)
               a(1) = (   1.000000   0.000000   0.000000 )  
               a(2) = (   0.500000   0.866025   0.000000 )  
               a(3) = (   0.000000   0.000000   3.410864 )  

     reciprocal axes: (cart. coord. in units 2 pi/alat)
               b(1) = (  1.000000 -0.577350  0.000000 )  
               b(2) = (  0.000000  1.154701  0.000000 )  
               b(3) = (  0.000000  0.000000  0.293181 )  


     PseudoPot. # 1 for Pt read from file:
     /users/bkreitz1/quantum-espresso/potentials/Pt.pbe-n-kjpaw_psl.1.0.0.UPF
     MD5 check sum: 04dc8a03c51ece93fc7b5889c2958091
     Pseudo is Projector augmented-wave + core cor, Zval = 10.0
     Generated using 'atomic' code by A. Dal Corso  v.6.7MaX
     Shape of augmentation charge: PSQ
     Using radial grid of 1277 points,  6 beta functions with: 
                l(1) =   0
                l(2) =   0
                l(3) =   1
                l(4) =   1
                l(5) =   2
                l(6) =   2
     Q(r) pseudized with 0 coefficients 


     PseudoPot. # 2 for O  read from file:
     /users/bkreitz1/quantum-espresso/potentials/O.pbe-nl-kjpaw_psl.1.0.0.UPF
     MD5 check sum: eef08af8b58d9ec80f8fdb78829eb7cf
     Pseudo is Projector augmented-wave + core cor, Zval =  6.0
     Generated using 'atomic' code by A. Dal Corso  v.6.7MaX
     Shape of augmentation charge: PSQ
     Using radial grid of 1095 points,  4 beta functions with: 
                l(1) =   0
                l(2) =   0
                l(3) =   1
                l(4) =   1
     Q(r) pseudized with 0 coefficients 


     PseudoPot. # 3 for C  read from file:
     /users/bkreitz1/quantum-espresso/potentials/C.pbe-n-kjpaw_psl.1.0.0.UPF
     MD5 check sum: a169b0ebad56f5ec0d79c4633f80bf22
     Pseudo is Projector augmented-wave + core cor, Zval =  4.0
     Generated using 'atomic' code by A. Dal Corso  v.6.7MaX
     Shape of augmentation charge: PSQ
     Using radial grid of 1073 points,  4 beta functions with: 
                l(1) =   0
                l(2) =   0
                l(3) =   1
                l(4) =   1
     Q(r) pseudized with 0 coefficients 


     PseudoPot. # 4 for H  read from file:
     /users/bkreitz1/quantum-espresso/potentials/H.pbe-kjpaw_psl.1.0.0.UPF
     MD5 check sum: ae98473e6dc62675f0d0baffdab24f65
     Pseudo is Projector augmented-wave, Zval =  1.0
     Generated using 'atomic' code by A. Dal Corso  v.6.7MaX
     Shape of augmentation charge: PSQ
     Using radial grid of  929 points,  2 beta functions with: 
                l(1) =   0
                l(2) =   0
     Q(r) pseudized with 0 coefficients 


     atomic species   valence    mass     pseudopotential
        Pt            10.00   195.08400     Pt( 1.00)
        O              6.00    15.99900     O ( 1.00)
        C              4.00    12.01100     C ( 1.00)
        H              1.00     1.00800     H ( 1.00)

     No symmetry found



   Cartesian axes

     site n.     atom                  positions (alat units)
         1           Pt  tau(   1) = (   0.0000000   0.0000000   1.0017346  )
         2           Pt  tau(   2) = (   0.3333333   0.0000000   1.0017346  )
         3           Pt  tau(   3) = (   0.6666667   0.0000000   1.0017346  )
         4           Pt  tau(   4) = (   0.1666667   0.2886751   1.0017346  )
         5           Pt  tau(   5) = (   0.5000000   0.2886751   1.0017346  )
         6           Pt  tau(   6) = (   0.8333333   0.2886751   1.0017346  )
         7           Pt  tau(   7) = (   0.3333333   0.5773503   1.0017346  )
         8           Pt  tau(   8) = (   0.6666667   0.5773503   1.0017346  )
         9           Pt  tau(   9) = (   1.0000000   0.5773503   1.0017346  )
        10           Pt  tau(  10) = (   0.1666667   0.0962250   1.2739001  )
        11           Pt  tau(  11) = (   0.5000000   0.0962250   1.2739001  )
        12           Pt  tau(  12) = (   0.8333333   0.0962250   1.2739001  )
        13           Pt  tau(  13) = (   0.3333333   0.3849002   1.2739001  )
        14           Pt  tau(  14) = (   0.6666667   0.3849002   1.2739001  )
        15           Pt  tau(  15) = (   1.0000000   0.3849002   1.2739001  )
        16           Pt  tau(  16) = (   0.5000000   0.6735753   1.2739001  )
        17           Pt  tau(  17) = (   0.8333333   0.6735753   1.2739001  )
        18           Pt  tau(  18) = (   1.1666667   0.6735753   1.2739001  )
        19           Pt  tau(  19) = (  -0.0015463   0.1951585   1.5457238  )
        20           Pt  tau(  20) = (   0.3334174   0.1942729   1.5404445  )
        21           Pt  tau(  21) = (   0.6683933   0.1953921   1.5461129  )
        22           Pt  tau(  22) = (   0.1662067   0.4832320   1.5417977  )
        23           Pt  tau(  23) = (   0.4996474   0.4832709   1.5416855  )
        24           Pt  tau(  24) = (   0.8328781   0.4815122   1.5465112  )
        25           Pt  tau(  25) = (   0.3331356   0.7719300   1.5418606  )
        26           Pt  tau(  26) = (   0.6666203   0.7722834   1.5404354  )
        27           Pt  tau(  27) = (   0.9996920   0.7721525   1.5408253  )
        28           Pt  tau(  28) = (   0.0008038   0.0031154   1.8150928  )
        29           Pt  tau(  29) = (   0.3330645   0.0053092   1.8162382  )
        30           Pt  tau(  30) = (   0.6654458   0.0032197   1.8152196  )
        31           Pt  tau(  31) = (   0.1687327   0.2935381   1.8140016  )
        32           Pt  tau(  32) = (   0.4972643   0.2937749   1.8143037  )
        33           Pt  tau(  33) = (   0.8323031   0.2940275   1.8288341  )
        34           Pt  tau(  34) = (   0.3327865   0.5824932   1.8164379  )
        35           Pt  tau(  35) = (   0.6648986   0.5852859   1.8142556  )
        36           Pt  tau(  36) = (   1.0009335   0.5849696   1.8147471  )
        37           O   tau(  37) = (   0.8549159   0.3121237   2.0636031  )
        38           C   tau(  38) = (   0.7240256   0.2854895   2.1644815  )
        39           C   tau(  39) = (   0.7630904   0.3592356   2.3240068  )
        40           H   tau(  40) = (   0.6162101   0.3398294   2.1167114  )
        41           H   tau(  41) = (   0.7016414   0.1583617   2.1763762  )
        42           H   tau(  42) = (   0.6648807   0.3394726   2.4049731  )
        43           H   tau(  43) = (   0.8692481   0.3063870   2.3737247  )
        44           H   tau(  44) = (   0.7816940   0.4858824   2.3125421  )

     number of k points=    13  Marzari-Vanderbilt smearing, width (Ry)=  0.0200
                       cart. coord. in units 2pi/alat
        k(    1) = (   0.0000000   0.0000000   0.0000000), wk =   0.0800000
        k(    2) = (   0.0000000   0.2309401   0.0000000), wk =   0.1600000
        k(    3) = (   0.0000000   0.4618802   0.0000000), wk =   0.1600000
        k(    4) = (   0.2000000  -0.1154701   0.0000000), wk =   0.1600000
        k(    5) = (   0.2000000   0.1154701   0.0000000), wk =   0.1600000
        k(    6) = (   0.2000000   0.3464102   0.0000000), wk =   0.1600000
        k(    7) = (   0.2000000  -0.5773503   0.0000000), wk =   0.1600000
        k(    8) = (   0.2000000  -0.3464102   0.0000000), wk =   0.1600000
        k(    9) = (   0.4000000  -0.2309401   0.0000000), wk =   0.1600000
        k(   10) = (   0.4000000  -0.0000000   0.0000000), wk =   0.1600000
        k(   11) = (   0.4000000   0.2309401   0.0000000), wk =   0.1600000
        k(   12) = (   0.4000000  -0.6928203   0.0000000), wk =   0.1600000
        k(   13) = (   0.4000000  -0.4618802   0.0000000), wk =   0.1600000

     Dense  grid:   765131 G-vectors     FFT dimensions: (  80,  80, 270)

     Estimated max dynamical RAM per process >       9.35 GB

     Check: negative core charge=   -0.000002

     Initial potential from superposition of free atoms

     starting charge  378.99376, renormalised to  379.00000

     negative rho (up, down):  1.133E-02 0.000E+00


     %%%%%%%%%%%%%%%%%%%%%%%%%%%%%%%%%%%%%%%%%%%%%%%%%%%%%%%%%%%%%%%%%%%%%%%%
     %                                                                      %
     % You are using vdW-DF, which was implemented by the Thonhauser group. %
     % Please cite the following two papers that made this development      %
     % possible and the two reviews that describe the various versions:     %
     %                                                                      %
     %   T. Thonhauser et al., PRL 115, 136402 (2015).                      %
     %   T. Thonhauser et al., PRB 76, 125112 (2007).                       %
     %   K. Berland et al., Rep. Prog. Phys. 78, 066501 (2015).             %
     %   D.C. Langreth et al., J. Phys.: Condens. Matter 21, 084203 (2009). %
     %                                                                      %
     %                                                                      %
     % If you are calculating the stress with vdW-DF, please also cite:     %
     %                                                                      %
     %   R. Sabatini et al., J. Phys.: Condens. Matter 24, 424209 (2012).   %
     %                                                                      %
     %%%%%%%%%%%%%%%%%%%%%%%%%%%%%%%%%%%%%%%%%%%%%%%%%%%%%%%%%%%%%%%%%%%%%%%%


     Starting wfcs are  341 randomized atomic wfcs
     Checking if some PAW data can be deallocated... 

     total cpu time spent up to now is      367.0 secs

     Self-consistent Calculation

     iteration #  1     ecut=    60.00 Ry     beta= 0.70
     Davidson diagonalization with overlap
     ethr =  1.00E-02,  avg # of iterations =  3.1

     Threshold (ethr) on eigenvalues was too large:
     Diagonalizing with lowered threshold

     Davidson diagonalization with overlap
     ethr =  7.87E-04,  avg # of iterations =  2.7

     negative rho (up, down):  1.110E-02 0.000E+00

     total cpu time spent up to now is     1789.3 secs

     total energy              =  -27840.63502391 Ry
     estimated scf accuracy    <       3.17159556 Ry

     iteration #  2     ecut=    60.00 Ry     beta= 0.70
     Davidson diagonalization with overlap
     ethr =  8.37E-04,  avg # of iterations =  5.9

     negative rho (up, down):  9.223E-03 0.000E+00

     total cpu time spent up to now is     2469.4 secs

     total energy              =  -27840.75070603 Ry
     estimated scf accuracy    <       1.26742007 Ry

     iteration #  3     ecut=    60.00 Ry     beta= 0.70
     Davidson diagonalization with overlap
     ethr =  3.34E-04,  avg # of iterations =  5.4

     negative rho (up, down):  5.584E-03 0.000E+00

     total cpu time spent up to now is     3166.5 secs

     total energy              =  -27840.77202832 Ry
     estimated scf accuracy    <       0.47679239 Ry

     iteration #  4     ecut=    60.00 Ry     beta= 0.70
     Davidson diagonalization with overlap
     ethr =  1.26E-04,  avg # of iterations = 12.8

     negative rho (up, down):  4.146E-03 0.000E+00

     total cpu time spent up to now is     4021.6 secs

     total energy              =  -27840.83004939 Ry
     estimated scf accuracy    <       0.21948443 Ry

     iteration #  5     ecut=    60.00 Ry     beta= 0.70
     Davidson diagonalization with overlap
     ethr =  5.79E-05,  avg # of iterations =  5.2

     negative rho (up, down):  2.566E-03 0.000E+00

     total cpu time spent up to now is     4739.0 secs

     total energy              =  -27840.83275330 Ry
     estimated scf accuracy    <       0.05663071 Ry

     iteration #  6     ecut=    60.00 Ry     beta= 0.70
     Davidson diagonalization with overlap
     c_bands:  1 eigenvalues not converged
     c_bands:  1 eigenvalues not converged
     c_bands:  1 eigenvalues not converged
     c_bands:  3 eigenvalues not converged
     c_bands:  1 eigenvalues not converged
     ethr =  1.49E-05,  avg # of iterations = 12.5

     negative rho (up, down):  2.331E-03 0.000E+00

     total cpu time spent up to now is     5762.4 secs

     total energy              =  -27840.84254533 Ry
     estimated scf accuracy    <       0.08246121 Ry

     iteration #  7     ecut=    60.00 Ry     beta= 0.70
     Davidson diagonalization with overlap
     ethr =  1.49E-05,  avg # of iterations =  3.2

     negative rho (up, down):  6.376E-03 0.000E+00

     total cpu time spent up to now is     6412.3 secs

     total energy              =  -27840.84024767 Ry
     estimated scf accuracy    <       0.04989111 Ry

     iteration #  8     ecut=    60.00 Ry     beta= 0.70
     Davidson diagonalization with overlap
     c_bands:  1 eigenvalues not converged
     c_bands:  2 eigenvalues not converged
     ethr =  1.32E-05,  avg # of iterations = 12.5

     negative rho (up, down):  8.769E-03 0.000E+00

     total cpu time spent up to now is     7196.6 secs

     total energy              =  -27840.84108388 Ry
     estimated scf accuracy    <       0.01110405 Ry

     iteration #  9     ecut=    60.00 Ry     beta= 0.70
     Davidson diagonalization with overlap
     c_bands:  1 eigenvalues not converged
     c_bands:  1 eigenvalues not converged
     c_bands:  1 eigenvalues not converged
     ethr =  2.93E-06,  avg # of iterations = 11.6

     negative rho (up, down):  1.861E-02 0.000E+00

     total cpu time spent up to now is     7999.9 secs

     total energy              =  -27840.84134300 Ry
     estimated scf accuracy    <       0.01223423 Ry

     iteration # 10     ecut=    60.00 Ry     beta= 0.70
     Davidson diagonalization with overlap
     c_bands:  1 eigenvalues not converged
     ethr =  2.93E-06,  avg # of iterations =  8.3

     negative rho (up, down):  2.247E-02 0.000E+00

     total cpu time spent up to now is     8738.7 secs

     total energy              =  -27840.84153481 Ry
     estimated scf accuracy    <       0.00561912 Ry

     iteration # 11     ecut=    60.00 Ry     beta= 0.70
     Davidson diagonalization with overlap
     ethr =  1.48E-06,  avg # of iterations =  4.2

     negative rho (up, down):  2.124E-02 0.000E+00

     total cpu time spent up to now is     9412.1 secs

     total energy              =  -27840.84168330 Ry
     estimated scf accuracy    <       0.00120050 Ry

     iteration # 12     ecut=    60.00 Ry     beta= 0.70
     Davidson diagonalization with overlap
     c_bands:  1 eigenvalues not converged
     c_bands:  1 eigenvalues not converged
     ethr =  3.17E-07,  avg # of iterations =  7.6

     negative rho (up, down):  1.716E-02 0.000E+00

     total cpu time spent up to now is    10143.5 secs

     total energy              =  -27840.84163217 Ry
     estimated scf accuracy    <       0.00066857 Ry

     iteration # 13     ecut=    60.00 Ry     beta= 0.70
     Davidson diagonalization with overlap
     c_bands:  1 eigenvalues not converged
     c_bands:  1 eigenvalues not converged
     ethr =  1.76E-07,  avg # of iterations =  9.2

     negative rho (up, down):  1.691E-02 0.000E+00

     total cpu time spent up to now is    10873.9 secs

     total energy              =  -27840.84164524 Ry
     estimated scf accuracy    <       0.00026678 Ry

     iteration # 14     ecut=    60.00 Ry     beta= 0.70
     Davidson diagonalization with overlap
     ethr =  7.04E-08,  avg # of iterations =  3.0

     negative rho (up, down):  1.642E-02 0.000E+00

     total cpu time spent up to now is    11567.1 secs

     total energy              =  -27840.84166800 Ry
     estimated scf accuracy    <       0.00010034 Ry

     iteration # 15     ecut=    60.00 Ry     beta= 0.70
     Davidson diagonalization with overlap
     ethr =  2.65E-08,  avg # of iterations =  4.1

     negative rho (up, down):  1.540E-02 0.000E+00

     total cpu time spent up to now is    12302.8 secs

     total energy              =  -27840.84166990 Ry
     estimated scf accuracy    <       0.00002874 Ry

     iteration # 16     ecut=    60.00 Ry     beta= 0.70
     Davidson diagonalization with overlap
     ethr =  7.58E-09,  avg # of iterations =  4.8

     negative rho (up, down):  1.447E-02 0.000E+00

     total cpu time spent up to now is    13212.0 secs

     total energy              =  -27840.84167517 Ry
     estimated scf accuracy    <       0.00001173 Ry

     iteration # 17     ecut=    60.00 Ry     beta= 0.70
     Davidson diagonalization with overlap
     ethr =  3.10E-09,  avg # of iterations =  2.0

     negative rho (up, down):  1.405E-02 0.000E+00

     total cpu time spent up to now is    13873.4 secs

     total energy              =  -27840.84167545 Ry
     estimated scf accuracy    <       0.00000359 Ry

     iteration # 18     ecut=    60.00 Ry     beta= 0.70
     Davidson diagonalization with overlap
     ethr =  9.46E-10,  avg # of iterations =  4.3

     negative rho (up, down):  1.381E-02 0.000E+00

     total cpu time spent up to now is    14670.0 secs

     total energy              =  -27840.84167599 Ry
     estimated scf accuracy    <       0.00000291 Ry

     iteration # 19     ecut=    60.00 Ry     beta= 0.70
     Davidson diagonalization with overlap
     ethr =  7.69E-10,  avg # of iterations =  1.3

     negative rho (up, down):  1.365E-02 0.000E+00

     total cpu time spent up to now is    15273.6 secs

     total energy              =  -27840.84167613 Ry
     estimated scf accuracy    <       0.00000249 Ry

     iteration # 20     ecut=    60.00 Ry     beta= 0.70
     Davidson diagonalization with overlap
     ethr =  6.56E-10,  avg # of iterations =  1.0

     negative rho (up, down):  1.351E-02 0.000E+00

     total cpu time spent up to now is    15872.1 secs

     total energy              =  -27840.84167620 Ry
     estimated scf accuracy    <       0.00000188 Ry

     iteration # 21     ecut=    60.00 Ry     beta= 0.70
     Davidson diagonalization with overlap
     ethr =  4.97E-10,  avg # of iterations =  1.0

     negative rho (up, down):  1.337E-02 0.000E+00

     total cpu time spent up to now is    16463.7 secs

     total energy              =  -27840.84167618 Ry
     estimated scf accuracy    <       0.00000156 Ry

     iteration # 22     ecut=    60.00 Ry     beta= 0.70
     Davidson diagonalization with overlap
     ethr =  4.11E-10,  avg # of iterations =  1.9

     negative rho (up, down):  1.298E-02 0.000E+00

     total cpu time spent up to now is    17075.3 secs

     End of self-consistent calculation

          k = 0.0000 0.0000 0.0000 ( 95475 PWs)   bands (ev):

   -18.2184 -11.8526  -8.4721  -7.4531  -6.1781  -5.4804  -5.0743  -5.0497
    -5.0418  -5.0329  -5.0249  -5.0141  -5.0069  -4.9644  -4.8980  -4.4770
    -4.4753  -4.4724  -4.4684  -4.4648  -4.4490  -4.0161  -4.0138  -4.0016
    -3.9945  -3.9926  -3.9863  -3.8008  -3.7872  -3.7844  -3.7814  -3.7807
    -3.7530  -3.6328  -3.5646  -3.5631  -3.5582  -3.5523  -3.5502  -3.5469
    -3.5409  -3.5359  -3.5321  -3.5118  -3.4940  -3.4510  -2.9834  -2.9431
    -2.9297  -2.9272  -2.9182  -2.8918  -2.8674  -2.8559  -2.8523  -2.8363
    -2.7817  -2.7098  -2.6877  -2.6225  -2.5913  -2.5423  -2.1744  -2.1202
    -2.1084  -2.1039  -2.0957  -2.0686  -2.0368  -1.9536  -1.9455  -1.9407
    -1.9376  -1.9157  -1.9122  -1.8980  -1.8915  -1.8847  -1.8828  -1.8747
    -1.8626  -1.8496  -1.8379  -1.8275  -1.7453  -1.7133  -1.6959  -1.6943
    -1.6794  -1.6737  -1.5503  -1.5410  -1.5336  -1.5252  -1.5045  -1.5002
    -1.4673  -1.4633  -1.3947  -1.3793  -1.3390  -1.3230  -1.3035  -1.2640
    -1.2591  -1.2560  -1.2194  -1.2172  -1.1628  -1.1105  -1.0773  -1.0600
    -1.0555  -1.0391  -0.9558  -0.7521  -0.6806  -0.6115  -0.5821  -0.5776
    -0.5700  -0.5663  -0.5635  -0.5186  -0.4982  -0.4967  -0.4878  -0.4258
    -0.3986  -0.3779  -0.3271  -0.2791  -0.2609  -0.2600  -0.1844  -0.1627
    -0.1557  -0.1128  -0.0811  -0.0791  -0.0712  -0.0640   0.0853   0.1416
     0.1641   0.1651   0.1685   0.1840   0.2306   0.2471   0.3931   0.4177
     0.4228   0.4407   0.4511   0.4913   0.5250   0.5661   0.5696   0.5990
     0.6041   0.6076   0.6326   0.6361   0.6388   0.6455   0.6681   0.6966
     0.7345   0.7465   0.7480   0.7703   0.7742   0.8003   0.8188   0.8445
     0.8474   0.8674   0.8809   0.9020   0.9100   0.9188   0.9307   0.9879
     0.9925   0.9954   1.0097   1.0212   1.0217   1.0296   1.0550   1.1113
     1.1135   1.1309   1.1427   1.1535   1.1690   1.3103   1.3532   1.4184
     1.4344   1.4482   1.4543   1.4562   1.4696   1.5653   2.2979   2.3340
     2.3359   2.3514   2.3736   2.4063   3.1677   4.6504   4.6668   4.6713
     4.6803   4.7017   5.2445   5.6505   6.2038   6.2047   6.2242   6.2443
     6.2584   6.2670   6.2861   6.5818

          k = 0.0000 0.2309 0.0000 ( 95544 PWs)   bands (ev):

   -18.2184 -11.8525  -8.4722  -7.3064  -6.0411  -5.5821  -5.4190  -5.1442
    -5.1295  -4.9429  -4.9029  -4.8815  -4.8177  -4.7935  -4.7804  -4.5769
    -4.5633  -4.4114  -4.4044  -4.3921  -4.3732  -4.1129  -3.9822  -3.9774
    -3.9506  -3.9443  -3.8859  -3.8819  -3.8216  -3.8162  -3.8070  -3.8015
    -3.7338  -3.7105  -3.7021  -3.6177  -3.5787  -3.5666  -3.5543  -3.5355
    -3.5004  -3.3700  -3.3482  -3.3422  -3.3249  -3.3089  -3.0762  -3.0649
    -3.0481  -3.0004  -2.9794  -2.9610  -2.9276  -2.8468  -2.7714  -2.7444
    -2.7023  -2.6849  -2.6525  -2.6219  -2.5936  -2.5366  -2.4068  -2.3135
    -2.2991  -2.2440  -2.2236  -2.1879  -2.1566  -2.1132  -2.0830  -2.0751
    -2.0671  -2.0587  -2.0105  -1.9647  -1.9364  -1.9215  -1.9117  -1.8357
    -1.8129  -1.7949  -1.7742  -1.7567  -1.7495  -1.7171  -1.6646  -1.6561
    -1.6515  -1.6309  -1.5794  -1.5457  -1.5293  -1.5244  -1.5184  -1.4915
    -1.4696  -1.4257  -1.3925  -1.3862  -1.3607  -1.3539  -1.3230  -1.3015
    -1.2880  -1.2463  -1.2429  -1.1744  -1.1253  -1.1019  -1.0846  -1.0766
    -1.0597  -1.0440  -1.0339  -0.9999  -0.9782  -0.9639  -0.9607  -0.8923
    -0.7789  -0.6966  -0.6642  -0.6269  -0.5947  -0.5643  -0.5311  -0.5207
    -0.5004  -0.4773  -0.3606  -0.3504  -0.2858  -0.2433  -0.2012  -0.1870
    -0.1428  -0.1318  -0.1194  -0.0766  -0.0592  -0.0219   0.0135   0.0154
     0.0481   0.0599   0.0753   0.1562   0.2562   0.2744   0.2880   0.3014
     0.3137   0.3438   0.4047   0.4246   0.4357   0.4650   0.4885   0.5215
     0.5447   0.5544   0.5712   0.6140   0.6621   0.6686   0.6923   0.7776
     0.8013   0.8233   0.8434   0.8567   0.8623   0.8950   0.9270   0.9602
     0.9812   1.0017   1.0359   1.0474   1.0725   1.0833   1.0911   1.1001
     1.1042   1.1603   1.1786   1.1951   1.3063   1.3128   1.3454   1.3541
     1.3555   1.3728   1.4011   1.4179   1.4362   1.4558   1.5068   1.5591
     1.5856   1.5919   1.7395   1.7495   1.7648   1.8021   2.0002   2.2144
     2.4699   2.9502   2.9631   3.0510   3.3908   4.0457   4.3814   4.6146
     5.0690   5.0743   5.2339   5.3655   5.6417   5.7576   6.0436   6.0788
     6.3202   6.3786   6.4298   6.4450

          k = 0.0000 0.4619 0.0000 ( 95590 PWs)   bands (ev):

   -18.2184 -11.8525  -8.4723  -6.8843  -6.2527  -5.6922  -5.4141  -5.1765
    -5.1616  -5.0034  -4.9102  -4.7910  -4.6543  -4.5312  -4.4943  -4.4559
    -4.4479  -4.2790  -4.2599  -4.2356  -4.2261  -4.2168  -4.1049  -4.0742
    -4.0670  -4.0181  -4.0130  -3.9663  -3.9300  -3.8819  -3.8757  -3.8563
    -3.6320  -3.6147  -3.6052  -3.6006  -3.5917  -3.5834  -3.5517  -3.3613
    -3.3589  -3.3228  -3.3169  -3.3082  -3.2820  -3.1367  -3.0360  -3.0251
    -3.0111  -2.9961  -2.9663  -2.9396  -2.9010  -2.8799  -2.8564  -2.8331
    -2.8068  -2.7487  -2.7006  -2.6553  -2.6279  -2.6130  -2.5650  -2.5011
    -2.4874  -2.4404  -2.4245  -2.4070  -2.2792  -2.2136  -2.1908  -2.1877
    -2.1841  -2.1064  -2.0915  -2.0755  -2.0212  -1.9507  -1.9394  -1.9249
    -1.8796  -1.8443  -1.8212  -1.8136  -1.8051  -1.7755  -1.7358  -1.7260
    -1.7136  -1.7002  -1.6972  -1.6917  -1.6641  -1.6390  -1.6069  -1.5605
    -1.5539  -1.5349  -1.5267  -1.5166  -1.4524  -1.3741  -1.3513  -1.3174
    -1.2909  -1.2669  -1.2551  -1.2290  -1.2124  -1.1772  -1.0983  -1.0840
    -1.0742  -1.0342  -0.9958  -0.9609  -0.9098  -0.8713  -0.8154  -0.8000
    -0.7349  -0.6933  -0.6607  -0.6407  -0.6308  -0.6099  -0.5976  -0.5704
    -0.5237  -0.5067  -0.4908  -0.4797  -0.4634  -0.4339  -0.4244  -0.3911
    -0.3468  -0.2958  -0.2626  -0.2435  -0.1891  -0.1681  -0.1370  -0.0623
    -0.0537   0.0160   0.0594   0.1119   0.1994   0.2093   0.2412   0.2601
     0.2900   0.3034   0.3294   0.3819   0.3907   0.4305   0.4465   0.4715
     0.5169   0.5487   0.5703   0.5943   0.6006   0.6197   0.6684   0.8082
     0.8181   0.8406   0.8618   0.8922   0.9042   0.9325   0.9884   1.0084
     1.0175   1.1044   1.1078   1.1382   1.1811   1.1978   1.2097   1.2250
     1.2830   1.3167   1.3357   1.3494   1.3593   1.3659   1.3805   1.3917
     1.5414   1.5563   1.5846   1.5994   1.6026   1.7739   1.8244   1.8370
     2.2186   2.3191   2.3807   2.6338   2.6495   2.7458   3.0408   3.0593
     3.3516   3.3864   3.8528   3.8612   3.8912   4.0771   4.1523   4.1990
     4.2727   4.5140   4.5266   4.6325   5.1634   5.2917   5.7040   5.7817
     6.0735   6.2006   6.3160   6.5790

          k = 0.2000-0.1155 0.0000 ( 95544 PWs)   bands (ev):

   -18.2184 -11.8526  -8.4723  -7.3065  -6.0406  -5.5831  -5.4275  -5.1409
    -5.1188  -4.9485  -4.9044  -4.8817  -4.8214  -4.7926  -4.7738  -4.5762
    -4.5627  -4.4138  -4.4081  -4.3958  -4.3718  -4.1092  -3.9821  -3.9735
    -3.9585  -3.9500  -3.8855  -3.8769  -3.8221  -3.8172  -3.8132  -3.7983
    -3.7403  -3.7031  -3.6984  -3.6159  -3.5881  -3.5678  -3.5522  -3.5289
    -3.5034  -3.3669  -3.3468  -3.3437  -3.3272  -3.2967  -3.0838  -3.0619
    -3.0426  -2.9959  -2.9826  -2.9560  -2.9320  -2.8440  -2.7734  -2.7383
    -2.7039  -2.6820  -2.6527  -2.6212  -2.5991  -2.5350  -2.3951  -2.3139
    -2.3002  -2.2243  -2.2124  -2.1795  -2.1409  -2.1234  -2.1041  -2.0832
    -2.0756  -2.0596  -2.0131  -1.9533  -1.9285  -1.9140  -1.9042  -1.8533
    -1.8360  -1.8281  -1.7684  -1.7549  -1.7422  -1.7142  -1.6526  -1.6493
    -1.6385  -1.6169  -1.5784  -1.5576  -1.5349  -1.5268  -1.5228  -1.4986
    -1.4645  -1.4289  -1.4102  -1.3925  -1.3552  -1.3420  -1.3279  -1.3040
    -1.2883  -1.2557  -1.2430  -1.1779  -1.1267  -1.1096  -1.0882  -1.0670
    -1.0622  -1.0467  -1.0331  -0.9960  -0.9757  -0.9619  -0.9578  -0.9172
    -0.7400  -0.6863  -0.6623  -0.6264  -0.5823  -0.5602  -0.5330  -0.5265
    -0.5115  -0.4692  -0.3649  -0.3562  -0.3324  -0.2350  -0.2074  -0.1804
    -0.1618  -0.1365  -0.1216  -0.0771  -0.0640  -0.0413   0.0153   0.0264
     0.0446   0.0623   0.0828   0.1864   0.2489   0.2747   0.2859   0.2997
     0.3208   0.3467   0.3867   0.4325   0.4449   0.4625   0.4864   0.5208
     0.5420   0.5503   0.5739   0.6135   0.6663   0.6812   0.7015   0.7804
     0.7887   0.8194   0.8332   0.8546   0.8663   0.8899   0.9470   0.9572
     0.9813   0.9998   1.0369   1.0467   1.0728   1.0866   1.0922   1.0990
     1.1042   1.1486   1.1622   1.1862   1.2971   1.3214   1.3466   1.3517
     1.3599   1.3809   1.4118   1.4321   1.4421   1.4641   1.5037   1.5616
     1.5812   1.5900   1.7433   1.7519   1.7651   1.7984   2.0087   2.2344
     2.4607   2.9409   2.9543   3.0577   3.3879   4.0374   4.3899   4.6262
     5.0668   5.0732   5.2311   5.3650   5.6429   5.7602   6.0426   6.0697
     6.3165   6.3548   6.4345   6.4521

          k = 0.2000 0.1155 0.0000 ( 95544 PWs)   bands (ev):

   -18.2184 -11.8526  -8.4724  -7.3064  -6.0403  -5.5771  -5.4356  -5.1426
    -5.1166  -4.9365  -4.9063  -4.8829  -4.8384  -4.7835  -4.7731  -4.5811
    -4.5623  -4.4118  -4.4068  -4.3958  -4.3715  -4.1054  -3.9811  -3.9770
    -3.9587  -3.9515  -3.8855  -3.8770  -3.8233  -3.8186  -3.8114  -3.7974
    -3.7439  -3.7085  -3.7000  -3.6094  -3.5809  -3.5776  -3.5421  -3.5277
    -3.5037  -3.3633  -3.3497  -3.3461  -3.3297  -3.2961  -3.0783  -3.0643
    -3.0280  -3.0090  -2.9777  -2.9575  -2.9319  -2.8368  -2.7776  -2.7655
    -2.6953  -2.6818  -2.6359  -2.6260  -2.5965  -2.5457  -2.3950  -2.3139
    -2.3009  -2.2266  -2.2088  -2.1903  -2.1397  -2.1180  -2.1040  -2.0828
    -2.0693  -2.0557  -2.0124  -1.9676  -1.9315  -1.9198  -1.9031  -1.8478
    -1.8387  -1.8284  -1.7712  -1.7635  -1.7538  -1.6935  -1.6557  -1.6474
    -1.6379  -1.6123  -1.5798  -1.5582  -1.5386  -1.5283  -1.5128  -1.5055
    -1.4476  -1.4316  -1.4102  -1.3764  -1.3560  -1.3416  -1.3269  -1.2970
    -1.2850  -1.2524  -1.2445  -1.1733  -1.1221  -1.1142  -1.0806  -1.0746
    -1.0604  -1.0461  -1.0360  -0.9878  -0.9757  -0.9610  -0.9534  -0.8981
    -0.8552  -0.6915  -0.6370  -0.6155  -0.5737  -0.5447  -0.5325  -0.5272
    -0.5132  -0.4697  -0.3982  -0.3558  -0.3230  -0.2251  -0.2103  -0.1799
    -0.1548  -0.1382  -0.1304  -0.0750  -0.0674  -0.0334   0.0131   0.0297
     0.0403   0.0655   0.0873   0.1963   0.2469   0.2719   0.2852   0.2982
     0.3323   0.3502   0.3673   0.4345   0.4583   0.4641   0.5022   0.5213
     0.5374   0.5493   0.5739   0.6075   0.6629   0.6840   0.7176   0.7545
     0.7889   0.8182   0.8312   0.8563   0.8761   0.8901   0.9465   0.9647
     0.9810   0.9883   1.0432   1.0507   1.0732   1.0865   1.0948   1.1040
     1.1049   1.1465   1.1586   1.1705   1.3003   1.3275   1.3452   1.3500
     1.3630   1.3798   1.4104   1.4265   1.4436   1.4636   1.4974   1.5661
     1.5805   1.5938   1.7423   1.7512   1.7639   1.7991   2.0041   2.2356
     2.4549   2.9407   2.9603   3.0584   3.3863   4.0250   4.3924   4.6330
     5.0671   5.0732   5.2413   5.3623   5.6334   5.7588   6.0479   6.0724
     6.2918   6.3347   6.4340   6.4510

          k = 0.2000 0.3464 0.0000 ( 95578 PWs)   bands (ev):

   -18.2184 -11.8525  -8.4725  -7.0213  -5.8450  -5.7987  -5.7520  -5.3917
    -4.9246  -4.7193  -4.7059  -4.6895  -4.6752  -4.6524  -4.6324  -4.6245
    -4.5976  -4.5278  -4.5169  -4.1442  -4.1345  -4.1278  -4.1177  -4.0647
    -4.0396  -3.9066  -3.8867  -3.8738  -3.8631  -3.8584  -3.7918  -3.7405
    -3.7206  -3.7120  -3.6968  -3.6429  -3.6256  -3.5948  -3.5675  -3.5515
    -3.5311  -3.4543  -3.2223  -3.1322  -3.1167  -3.1052  -3.0885  -3.0716
    -3.0644  -3.0452  -2.9979  -2.9885  -2.8726  -2.8335  -2.8249  -2.8042
    -2.7442  -2.7079  -2.6588  -2.6467  -2.6259  -2.5731  -2.5503  -2.5385
    -2.3952  -2.3611  -2.3515  -2.2953  -2.2673  -2.2492  -2.2355  -2.2238
    -2.1703  -2.1610  -2.0366  -2.0039  -1.9952  -1.9739  -1.9383  -1.9160
    -1.8990  -1.8725  -1.8478  -1.8300  -1.7616  -1.7314  -1.6995  -1.6865
    -1.6695  -1.6655  -1.6597  -1.6143  -1.6048  -1.5736  -1.5301  -1.5173
    -1.4946  -1.4438  -1.4410  -1.4143  -1.3751  -1.3425  -1.3202  -1.3037
    -1.2971  -1.2810  -1.2580  -1.2441  -1.2250  -1.2133  -1.2056  -1.1772
    -1.1450  -1.1242  -1.0493  -1.0271  -1.0106  -0.9732  -0.9323  -0.9107
    -0.8987  -0.7813  -0.7277  -0.7040  -0.6344  -0.5646  -0.5533  -0.5223
    -0.5102  -0.4934  -0.4711  -0.4623  -0.4310  -0.4032  -0.3774  -0.3383
    -0.2984  -0.2153  -0.1576  -0.1221  -0.0996  -0.0834  -0.0570  -0.0253
    -0.0020   0.0587   0.0986   0.1222   0.1591   0.1809   0.2180   0.2770
     0.3050   0.3269   0.3500   0.3751   0.4044   0.4187   0.4317   0.4441
     0.4529   0.4678   0.4801   0.5273   0.5858   0.6517   0.6950   0.7762
     0.8041   0.8758   0.8885   0.9813   0.9875   1.0096   1.0694   1.1088
     1.1178   1.1401   1.1453   1.1639   1.1839   1.1908   1.2050   1.2334
     1.2536   1.2727   1.2843   1.3311   1.3720   1.3883   1.4041   1.4187
     1.4590   1.5180   1.6042   1.6476   1.6621   1.7203   1.7352   1.7464
     1.8742   1.8865   2.0412   2.3985   2.4224   2.5368   2.9395   2.9557
     3.0002   3.1379   3.6706   3.6879   3.8647   3.9003   3.9317   4.2154
     4.5922   5.0545   5.1347   5.2722   5.3114   5.7777   5.8251   5.8970
     5.9130   5.9164   6.0039   6.1818

          k = 0.2000-0.5774 0.0000 ( 95572 PWs)   bands (ev):

   -18.2184 -11.8525  -8.4724  -6.4890  -6.4875  -5.8907  -5.5448  -5.2357
    -5.1176  -4.9165  -4.7098  -4.6785  -4.5754  -4.5401  -4.4355  -4.4264
    -4.3283  -4.3159  -4.2078  -4.2019  -4.1971  -4.1677  -4.1535  -4.1360
    -4.1296  -4.0021  -3.9889  -3.9791  -3.9479  -3.9413  -3.8586  -3.7675
    -3.7423  -3.6930  -3.6109  -3.5918  -3.5725  -3.5659  -3.5462  -3.5328
    -3.4392  -3.4266  -3.3430  -3.3338  -3.1562  -3.1518  -3.1213  -3.0301
    -2.9875  -2.9556  -2.9437  -2.8724  -2.8069  -2.7732  -2.7547  -2.7312
    -2.7103  -2.6836  -2.6719  -2.6480  -2.6234  -2.5395  -2.5253  -2.5097
    -2.5008  -2.4866  -2.4730  -2.4428  -2.4251  -2.4044  -2.2771  -2.2630
    -2.2258  -2.2026  -2.1144  -2.0872  -2.0640  -2.0475  -2.0151  -1.9766
    -1.9637  -1.9436  -1.8991  -1.8648  -1.8456  -1.8160  -1.7971  -1.7783
    -1.7518  -1.7029  -1.6702  -1.6484  -1.6281  -1.6151  -1.5255  -1.4970
    -1.4603  -1.4528  -1.4233  -1.4139  -1.3789  -1.3709  -1.3579  -1.3183
    -1.3115  -1.2884  -1.2703  -1.2604  -1.2403  -1.2194  -1.2091  -1.2055
    -1.1866  -1.1750  -1.1296  -1.1130  -1.0921  -0.9309  -0.8733  -0.8353
    -0.7986  -0.7898  -0.7402  -0.6819  -0.6771  -0.6562  -0.5990  -0.5808
    -0.5628  -0.5420  -0.5118  -0.4807  -0.4516  -0.4164  -0.3879  -0.3639
    -0.3161  -0.2893  -0.2517  -0.1672  -0.1063  -0.0707  -0.0457  -0.0148
     0.0006   0.0321   0.0777   0.1033   0.1216   0.1283   0.1583   0.1849
     0.2087   0.2692   0.2900   0.3282   0.3398   0.3664   0.3737   0.3999
     0.4171   0.4704   0.5246   0.5810   0.6767   0.7249   0.7451   0.7870
     0.8105   0.8398   0.9358   0.9495   0.9638   1.0214   1.1040   1.1145
     1.1259   1.1671   1.1804   1.1999   1.2202   1.2323   1.2474   1.3163
     1.3345   1.3459   1.3773   1.3863   1.3965   1.4141   1.4553   1.5570
     1.5719   1.5974   1.6001   1.6068   1.6644   1.7033   1.7886   1.9236
     2.1602   2.7501   2.7539   2.9683   3.0306   3.1364   3.1441   3.2020
     3.2859   3.7159   3.7653   3.7936   4.2278   4.2716   4.3448   4.3715
     4.3846   4.5573   4.6682   4.7553   4.9473   5.1615   5.2288   5.3189
     5.7805   5.8575   5.8782   6.2235

          k = 0.2000-0.3464 0.0000 ( 95578 PWs)   bands (ev):

   -18.2184 -11.8525  -8.4723  -7.0215  -5.8483  -5.7955  -5.7536  -5.3904
    -4.9277  -4.7136  -4.7051  -4.6913  -4.6663  -4.6512  -4.6351  -4.6247
    -4.6025  -4.5264  -4.5186  -4.1458  -4.1332  -4.1273  -4.1251  -4.0631
    -4.0439  -3.9067  -3.8874  -3.8738  -3.8632  -3.8575  -3.7861  -3.7353
    -3.7228  -3.7050  -3.6966  -3.6390  -3.6193  -3.5971  -3.5700  -3.5479
    -3.5363  -3.4755  -3.2095  -3.1270  -3.1150  -3.1035  -3.0987  -3.0806
    -3.0663  -3.0523  -3.0008  -2.9896  -2.8788  -2.8312  -2.8256  -2.7590
    -2.7453  -2.7210  -2.6539  -2.6500  -2.6385  -2.5700  -2.5633  -2.5234
    -2.3892  -2.3668  -2.3540  -2.2804  -2.2596  -2.2521  -2.2415  -2.2225
    -2.1667  -2.1610  -2.0331  -2.0061  -1.9887  -1.9728  -1.9393  -1.9126
    -1.8975  -1.8746  -1.8553  -1.8321  -1.7644  -1.7266  -1.7014  -1.6922
    -1.6712  -1.6663  -1.6590  -1.6199  -1.6125  -1.5759  -1.5465  -1.5189
    -1.4906  -1.4468  -1.4339  -1.4072  -1.3953  -1.3385  -1.3263  -1.3069
    -1.2994  -1.2745  -1.2649  -1.2409  -1.2303  -1.2137  -1.2028  -1.1683
    -1.1559  -1.1336  -1.0409  -1.0312  -1.0064  -0.9641  -0.9229  -0.9087
    -0.8653  -0.7773  -0.7270  -0.6848  -0.6514  -0.5624  -0.5546  -0.5243
    -0.5086  -0.4788  -0.4733  -0.4641  -0.4318  -0.4127  -0.3509  -0.3401
    -0.3242  -0.2237  -0.1636  -0.1227  -0.0989  -0.0783  -0.0581  -0.0296
    -0.0047   0.0368   0.1016   0.1207   0.1569   0.1816   0.2312   0.2801
     0.3070   0.3222   0.3496   0.3569   0.4009   0.4196   0.4268   0.4413
     0.4559   0.4607   0.4815   0.5362   0.6059   0.6636   0.6916   0.7689
     0.8069   0.8747   0.8935   0.9840   0.9901   1.0258   1.0667   1.1071
     1.1148   1.1257   1.1438   1.1602   1.1826   1.1921   1.2063   1.2260
     1.2516   1.2728   1.2805   1.3314   1.3671   1.3910   1.4034   1.4186
     1.4597   1.5206   1.6061   1.6498   1.6614   1.7185   1.7376   1.7479
     1.8729   1.8871   2.0432   2.4071   2.4265   2.5304   2.9414   2.9577
     3.0007   3.1379   3.6768   3.6863   3.8636   3.9001   3.9312   4.2207
     4.5913   5.0542   5.1371   5.2628   5.3106   5.7846   5.8274   5.8890
     5.9103   5.9392   5.9844   6.1904

          k = 0.4000-0.2309 0.0000 ( 95590 PWs)   bands (ev):

   -18.2184 -11.8526  -8.4725  -6.8849  -6.2544  -5.6894  -5.4188  -5.1730
    -5.1543  -5.0103  -4.9168  -4.7938  -4.6540  -4.5347  -4.4975  -4.4533
    -4.4394  -4.2853  -4.2605  -4.2356  -4.2293  -4.2191  -4.1132  -4.0696
    -4.0648  -4.0225  -4.0138  -3.9697  -3.9393  -3.8783  -3.8715  -3.8614
    -3.6321  -3.6090  -3.6024  -3.5976  -3.5850  -3.5754  -3.5487  -3.3589
    -3.3533  -3.3171  -3.3153  -3.3051  -3.2788  -3.1340  -3.0339  -3.0262
    -3.0096  -2.9993  -2.9575  -2.9434  -2.8948  -2.8742  -2.8599  -2.8247
    -2.8094  -2.7554  -2.6982  -2.6486  -2.6233  -2.6103  -2.5661  -2.4940
    -2.4619  -2.4320  -2.4166  -2.3891  -2.2775  -2.2180  -2.1993  -2.1951
    -2.1835  -2.1241  -2.0826  -2.0668  -2.0337  -1.9865  -1.9600  -1.9351
    -1.8730  -1.8334  -1.8205  -1.8147  -1.8051  -1.7692  -1.7352  -1.7179
    -1.7144  -1.7077  -1.6967  -1.6848  -1.6735  -1.6429  -1.5944  -1.5623
    -1.5545  -1.5311  -1.5221  -1.5015  -1.4564  -1.3933  -1.3577  -1.3331
    -1.3176  -1.2705  -1.2619  -1.2346  -1.2217  -1.1983  -1.1153  -1.0861
    -1.0687  -1.0364  -0.9908  -0.9599  -0.8860  -0.8495  -0.8098  -0.7833
    -0.7367  -0.6939  -0.6677  -0.6431  -0.6275  -0.5970  -0.5888  -0.5662
    -0.5223  -0.5093  -0.4909  -0.4781  -0.4657  -0.4460  -0.4227  -0.3932
    -0.3536  -0.3073  -0.2770  -0.2481  -0.2195  -0.1797  -0.1055  -0.0704
    -0.0624   0.0232   0.0581   0.1300   0.1883   0.2005   0.2440   0.2523
     0.2747   0.3113   0.3386   0.3723   0.3893   0.4351   0.4502   0.4552
     0.5367   0.5563   0.5708   0.5878   0.6097   0.6222   0.6724   0.7718
     0.8138   0.8475   0.8595   0.8815   0.8978   0.9715   1.0001   1.0143
     1.0223   1.0971   1.1040   1.1337   1.1714   1.1720   1.2006   1.2248
     1.2778   1.3231   1.3404   1.3511   1.3713   1.3769   1.3778   1.3992
     1.5502   1.5580   1.5975   1.6073   1.6231   1.7703   1.8236   1.8550
     2.2373   2.3005   2.3656   2.6298   2.6508   2.7429   3.0430   3.0544
     3.3522   3.3984   3.8516   3.8618   3.9184   4.0566   4.1499   4.2002
     4.2837   4.5113   4.5281   4.6335   5.1872   5.2710   5.7002   5.7754
     6.0781   6.1954   6.3156   6.6260

          k = 0.4000-0.0000 0.0000 ( 95578 PWs)   bands (ev):

   -18.2184 -11.8526  -8.4726  -7.0216  -5.8451  -5.7982  -5.7531  -5.3946
    -4.9254  -4.7194  -4.7123  -4.6896  -4.6706  -4.6453  -4.6335  -4.6250
    -4.5963  -4.5273  -4.5170  -4.1520  -4.1430  -4.1265  -4.1197  -4.0738
    -4.0354  -3.9006  -3.8851  -3.8794  -3.8632  -3.8605  -3.7801  -3.7319
    -3.7182  -3.7131  -3.6998  -3.6385  -3.6230  -3.6067  -3.5653  -3.5508
    -3.5318  -3.4592  -3.2220  -3.1344  -3.1103  -3.1028  -3.0889  -3.0663
    -3.0634  -3.0302  -2.9971  -2.9885  -2.8637  -2.8374  -2.8235  -2.8041
    -2.7443  -2.7071  -2.6558  -2.6478  -2.6338  -2.5776  -2.5511  -2.5278
    -2.3918  -2.3631  -2.3425  -2.2761  -2.2557  -2.2385  -2.2338  -2.2189
    -2.1696  -2.1607  -2.0360  -2.0092  -1.9974  -1.9902  -1.9411  -1.9287
    -1.8951  -1.8655  -1.8471  -1.8362  -1.7695  -1.7216  -1.6935  -1.6887
    -1.6679  -1.6620  -1.6563  -1.6226  -1.6045  -1.5879  -1.5361  -1.5277
    -1.5012  -1.4629  -1.4387  -1.4112  -1.3843  -1.3523  -1.3286  -1.3134
    -1.2956  -1.2799  -1.2615  -1.2441  -1.2170  -1.2114  -1.2049  -1.1840
    -1.1431  -1.1208  -1.0488  -1.0329  -1.0116  -0.9718  -0.9386  -0.9169
    -0.8860  -0.7664  -0.7209  -0.6870  -0.6393  -0.5812  -0.5543  -0.5292
    -0.5101  -0.4915  -0.4833  -0.4600  -0.4275  -0.4055  -0.3733  -0.3211
    -0.3083  -0.2167  -0.1652  -0.1220  -0.1033  -0.0941  -0.0602  -0.0364
    -0.0054   0.0859   0.1025   0.1091   0.1595   0.1788   0.2256   0.2549
     0.3083   0.3288   0.3524   0.3968   0.4064   0.4261   0.4379   0.4445
     0.4523   0.4652   0.4893   0.5319   0.5677   0.6467   0.6977   0.7701
     0.8033   0.8702   0.8962   0.9788   0.9886   1.0110   1.0698   1.1097
     1.1172   1.1432   1.1505   1.1596   1.1808   1.1927   1.1975   1.2192
     1.2549   1.2647   1.2927   1.3283   1.3712   1.3779   1.4042   1.4188
     1.4552   1.5213   1.6240   1.6637   1.6789   1.7235   1.7385   1.7499
     1.8779   1.8840   2.0362   2.3944   2.4083   2.5423   2.9451   2.9646
     3.0079   3.1305   3.6696   3.6831   3.8672   3.8999   3.9373   4.2129
     4.5931   5.0553   5.1466   5.2740   5.3055   5.7837   5.8131   5.8942
     5.9150   5.9335   6.0035   6.1801

          k = 0.4000 0.2309 0.0000 ( 95590 PWs)   bands (ev):

   -18.2184 -11.8526  -8.4728  -6.8846  -6.2533  -5.6889  -5.4202  -5.1747
    -5.1513  -5.0019  -4.9160  -4.8114  -4.6553  -4.5367  -4.4980  -4.4490
    -4.4389  -4.2833  -4.2586  -4.2379  -4.2232  -4.2169  -4.1148  -4.0670
    -4.0633  -4.0216  -4.0140  -3.9700  -3.9410  -3.8811  -3.8759  -3.8657
    -3.6258  -3.6081  -3.6027  -3.5973  -3.5857  -3.5767  -3.5457  -3.3615
    -3.3515  -3.3197  -3.3159  -3.3008  -3.2911  -3.0999  -3.0356  -3.0313
    -3.0064  -2.9991  -2.9692  -2.9348  -2.8999  -2.8727  -2.8702  -2.8193
    -2.8047  -2.7698  -2.6915  -2.6571  -2.6289  -2.6223  -2.5376  -2.4987
    -2.4640  -2.4348  -2.4029  -2.3944  -2.2798  -2.2210  -2.2114  -2.1950
    -2.1888  -2.1235  -2.1019  -2.0768  -2.0286  -1.9839  -1.9600  -1.9380
    -1.8662  -1.8305  -1.8199  -1.8126  -1.8044  -1.7632  -1.7462  -1.7275
    -1.7117  -1.7031  -1.6993  -1.6933  -1.6646  -1.6436  -1.5877  -1.5587
    -1.5362  -1.5270  -1.5201  -1.4844  -1.4618  -1.3930  -1.3506  -1.3411
    -1.3045  -1.2690  -1.2620  -1.2321  -1.2271  -1.2065  -1.0914  -1.0855
    -1.0696  -1.0393  -0.9944  -0.9603  -0.8683  -0.8421  -0.8165  -0.7813
    -0.7445  -0.7080  -0.6719  -0.6431  -0.6199  -0.5916  -0.5864  -0.5761
    -0.5457  -0.5210  -0.5074  -0.4847  -0.4683  -0.4588  -0.4415  -0.3973
    -0.3481  -0.2895  -0.2785  -0.2621  -0.1977  -0.1791  -0.0903  -0.0773
    -0.0551   0.0334   0.0693   0.1403   0.1686   0.2023   0.2457   0.2574
     0.2728   0.3197   0.3360   0.3739   0.3951   0.4284   0.4508   0.4548
     0.5338   0.5674   0.5710   0.5897   0.6132   0.6313   0.6882   0.7261
     0.8124   0.8495   0.8594   0.8806   0.8965   0.9738   0.9844   1.0111
     1.0177   1.1000   1.1077   1.1501   1.1723   1.1782   1.2010   1.2387
     1.2791   1.3202   1.3459   1.3532   1.3689   1.3750   1.3816   1.4036
     1.5496   1.5590   1.5957   1.6053   1.6224   1.7706   1.8238   1.8550
     2.2392   2.2681   2.3639   2.6353   2.6522   2.7386   3.0463   3.0540
     3.3482   3.3951   3.8518   3.8618   3.9162   4.0487   4.1588   4.1936
     4.2849   4.5098   4.5329   4.6411   5.1820   5.2558   5.7135   5.7667
     6.0622   6.2011   6.3105   6.5756

          k = 0.4000-0.6928 0.0000 ( 95572 PWs)   bands (ev):

   -18.2184 -11.8525  -8.4727  -6.4928  -6.4844  -5.8919  -5.5376  -5.2316
    -5.1286  -4.9209  -4.7154  -4.6842  -4.5754  -4.5374  -4.4280  -4.4191
    -4.3295  -4.3204  -4.2147  -4.2057  -4.1930  -4.1617  -4.1471  -4.1427
    -4.1318  -4.0076  -3.9903  -3.9801  -3.9559  -3.9399  -3.8602  -3.7822
    -3.7336  -3.6779  -3.6124  -3.5801  -3.5729  -3.5677  -3.5432  -3.5203
    -3.4451  -3.4269  -3.3385  -3.3298  -3.1646  -3.1463  -3.0880  -3.0432
    -2.9934  -2.9579  -2.9370  -2.8786  -2.8169  -2.7755  -2.7606  -2.7445
    -2.7180  -2.6623  -2.6580  -2.6411  -2.6078  -2.5302  -2.5260  -2.5048
    -2.4911  -2.4819  -2.4692  -2.4372  -2.4250  -2.4021  -2.2985  -2.2722
    -2.2304  -2.2112  -2.1185  -2.0768  -2.0576  -2.0460  -2.0112  -2.0006
    -1.9803  -1.9584  -1.8908  -1.8649  -1.8443  -1.8251  -1.8008  -1.7693
    -1.7295  -1.7062  -1.6659  -1.6445  -1.6284  -1.6239  -1.5364  -1.4842
    -1.4627  -1.4409  -1.4246  -1.4037  -1.3857  -1.3675  -1.3536  -1.3325
    -1.3139  -1.2962  -1.2835  -1.2547  -1.2247  -1.2240  -1.2129  -1.2035
    -1.1968  -1.1687  -1.1462  -1.1129  -1.0983  -0.9626  -0.9234  -0.8063
    -0.7896  -0.7726  -0.7075  -0.6848  -0.6709  -0.6425  -0.6228  -0.5768
    -0.5567  -0.5338  -0.5149  -0.4846  -0.4526  -0.4310  -0.3820  -0.3383
    -0.3140  -0.2835  -0.2645  -0.2065  -0.1124  -0.0998  -0.0452  -0.0081
     0.0057   0.0649   0.0808   0.1008   0.1065   0.1292   0.1459   0.1833
     0.1973   0.2657   0.2885   0.3260   0.3454   0.3596   0.3860   0.3978
     0.4132   0.4764   0.5557   0.6135   0.6405   0.7246   0.7468   0.8088
     0.8262   0.8318   0.9251   0.9481   0.9593   1.0181   1.0886   1.1049
     1.1421   1.1555   1.1722   1.1958   1.2097   1.2354   1.2577   1.3220
     1.3379   1.3450   1.3607   1.3848   1.3993   1.4175   1.4572   1.5618
     1.5744   1.6028   1.6046   1.6244   1.6677   1.7206   1.7910   1.9296
     2.1510   2.7490   2.7541   2.9643   3.0251   3.1363   3.1445   3.1644
     3.2943   3.7382   3.7709   3.7834   4.2304   4.2648   4.3537   4.3733
     4.3817   4.6070   4.6809   4.7512   4.8990   5.1667   5.2143   5.3214
     5.8206   5.8422   5.8721   6.2208

          k = 0.4000-0.4619 0.0000 ( 95572 PWs)   bands (ev):

   -18.2184 -11.8526  -8.4726  -6.4913  -6.4869  -5.8902  -5.5390  -5.2386
    -5.1246  -4.9163  -4.7125  -4.6812  -4.5739  -4.5387  -4.4342  -4.4202
    -4.3318  -4.3182  -4.2140  -4.2042  -4.1965  -4.1627  -4.1514  -4.1388
    -4.1319  -4.0104  -3.9901  -3.9765  -3.9564  -3.9365  -3.8612  -3.7740
    -3.7342  -3.6856  -3.6130  -3.5870  -3.5717  -3.5647  -3.5370  -3.5267
    -3.4392  -3.4260  -3.3379  -3.3291  -3.1643  -3.1454  -3.1212  -3.0207
    -2.9935  -2.9574  -2.9413  -2.8786  -2.8157  -2.7757  -2.7568  -2.7362
    -2.7031  -2.6634  -2.6554  -2.6442  -2.6222  -2.5366  -2.5200  -2.5069
    -2.4973  -2.4908  -2.4689  -2.4419  -2.4233  -2.3989  -2.2766  -2.2653
    -2.2261  -2.1997  -2.1180  -2.0829  -2.0631  -2.0480  -2.0142  -1.9984
    -1.9810  -1.9560  -1.8933  -1.8687  -1.8490  -1.8243  -1.8007  -1.7744
    -1.7356  -1.7071  -1.6585  -1.6408  -1.6273  -1.6112  -1.5294  -1.5111
    -1.4621  -1.4374  -1.4178  -1.4130  -1.3856  -1.3752  -1.3616  -1.3402
    -1.3140  -1.2887  -1.2763  -1.2639  -1.2345  -1.2200  -1.2149  -1.2086
    -1.1928  -1.1672  -1.1409  -1.1251  -1.1011  -0.9483  -0.8773  -0.8257
    -0.7939  -0.7819  -0.7119  -0.6799  -0.6752  -0.6540  -0.5908  -0.5855
    -0.5572  -0.5337  -0.5189  -0.4868  -0.4542  -0.4101  -0.3782  -0.3519
    -0.3161  -0.2907  -0.2659  -0.2061  -0.1094  -0.0745  -0.0442  -0.0167
     0.0099   0.0549   0.0769   0.1028   0.1202   0.1274   0.1521   0.1713
     0.1996   0.2644   0.2924   0.3263   0.3434   0.3641   0.3749   0.3967
     0.4091   0.4753   0.5431   0.5806   0.6654   0.7252   0.7470   0.8031
     0.8175   0.8433   0.9286   0.9518   0.9659   1.0358   1.0869   1.1078
     1.1338   1.1606   1.1727   1.1911   1.2099   1.2281   1.2540   1.3219
     1.3354   1.3474   1.3584   1.3848   1.3950   1.4127   1.4552   1.5637
     1.5747   1.6030   1.6069   1.6247   1.6674   1.7263   1.7896   1.9283
     2.1541   2.7495   2.7538   2.9631   3.0325   3.1339   3.1447   3.1812
     3.2909   3.7243   3.7696   3.7935   4.2323   4.2655   4.3423   4.3734
     4.3792   4.6102   4.6835   4.7515   4.9244   5.1631   5.2151   5.3193
     5.8019   5.8401   5.8678   6.2049

     the Fermi energy is     1.3774 ev

!    total energy              =  -27840.84167653 Ry

     total all-electron energy =  -1326951.982165 Ry
     estimated scf accuracy    <       0.00000057 Ry
     smearing contrib. (-TS)   =       0.00024439 Ry
     internal energy E=F+TS    =  -27840.84192091 Ry

     The total energy is F=E-TS. E is the sum of the following terms:
     one-electron contribution =  -31090.65374622 Ry
     hartree contribution      =   15844.90057828 Ry
     xc contribution           =    -911.18277959 Ry
     ewald contribution        =   13813.28983741 Ry
     one-center paw contrib.   =  -25497.19581079 Ry

     convergence has been achieved in  22 iterations

     negative rho (up, down):  1.298E-02 0.000E+00

     Forces acting on atoms (cartesian axes, Ry/au):

     atom    1 type  1   force =     0.00079907   -0.00054606   -0.00341147
     atom    2 type  1   force =    -0.00032541   -0.00084353   -0.00857393
     atom    3 type  1   force =    -0.00071211   -0.00047684   -0.00322649
     atom    4 type  1   force =     0.00084870   -0.00098346   -0.00321372
     atom    5 type  1   force =    -0.00063735   -0.00104740   -0.00340326
     atom    6 type  1   force =     0.00003023   -0.00029897   -0.00346713
     atom    7 type  1   force =     0.00013040   -0.00030287   -0.00303089
     atom    8 type  1   force =     0.00019295    0.00029312   -0.00319691
     atom    9 type  1   force =    -0.00015232    0.00062975   -0.00329281
     atom   10 type  1   force =    -0.00055655    0.00156310   -0.00003666
     atom   11 type  1   force =     0.00087516    0.00134115    0.00055041
     atom   12 type  1   force =    -0.00012136    0.00321053    0.00753645
     atom   13 type  1   force =    -0.00025890    0.00116636    0.00089345
     atom   14 type  1   force =     0.00204965   -0.00062724    0.00791676
     atom   15 type  1   force =    -0.00244342   -0.00039420    0.00775146
     atom   16 type  1   force =    -0.00053911    0.00043535    0.00064976
     atom   17 type  1   force =     0.00048615   -0.00110908    0.00194826
     atom   18 type  1   force =     0.00002744    0.00034375    0.00132986
     atom   19 type  1   force =     0.00007458    0.00005857    0.00042866
     atom   20 type  1   force =    -0.00011128    0.00015905    0.00028330
     atom   21 type  1   force =    -0.00055342   -0.00009522    0.00019953
     atom   22 type  1   force =     0.00021707    0.00003227    0.00047754
     atom   23 type  1   force =     0.00018459    0.00012553    0.00017404
     atom   24 type  1   force =     0.00017424    0.00031651    0.00021598
     atom   25 type  1   force =     0.00009251   -0.00011201    0.00051316
     atom   26 type  1   force =     0.00006770   -0.00009825    0.00052853
     atom   27 type  1   force =     0.00032697   -0.00015093    0.00028341
     atom   28 type  1   force =    -0.00008561    0.00023890    0.00033181
     atom   29 type  1   force =    -0.00006804   -0.00048511    0.00022162
     atom   30 type  1   force =     0.00001591    0.00009690    0.00031176
     atom   31 type  1   force =    -0.00006023   -0.00029145    0.00016552
     atom   32 type  1   force =     0.00053882   -0.00003324    0.00042770
     atom   33 type  1   force =    -0.00017772    0.00016543   -0.00008884
     atom   34 type  1   force =     0.00008834   -0.00025163    0.00011445
     atom   35 type  1   force =     0.00003406   -0.00038561    0.00000075
     atom   36 type  1   force =     0.00000299    0.00008186   -0.00003488
     atom   37 type  2   force =     0.00043834    0.00022163    0.00018509
     atom   38 type  3   force =    -0.00023120    0.00040793    0.00164578
     atom   39 type  3   force =    -0.00078940   -0.00165349    0.00177554
     atom   40 type  4   force =    -0.00000099   -0.00004822   -0.00053321
     atom   41 type  4   force =    -0.00013891   -0.00033202   -0.00020807
     atom   42 type  4   force =     0.00033345   -0.00083612    0.00058986
     atom   43 type  4   force =    -0.00023068   -0.00032153   -0.00003892
     atom   44 type  4   force =     0.00016469    0.00083683   -0.00169324

     Total force =     0.004306     Total SCF correction =     0.001371
     SCF correction compared to forces is large: reduce conv_thr to get better values

     negative rho (up, down):  1.298E-02 0.000E+00

     negative rho (up, down):  1.298E-02 0.000E+00

     negative rho (up, down):  1.298E-02 0.000E+00

     negative rho (up, down):  1.298E-02 0.000E+00

     negative rho (up, down):  1.298E-02 0.000E+00

     negative rho (up, down):  1.298E-02 0.000E+00

     negative rho (up, down):  1.298E-02 0.000E+00

     negative rho (up, down):  1.298E-02 0.000E+00

     negative rho (up, down):  1.298E-02 0.000E+00

     negative rho (up, down):  1.298E-02 0.000E+00

     negative rho (up, down):  1.298E-02 0.000E+00

     negative rho (up, down):  1.298E-02 0.000E+00

     negative rho (up, down):  1.298E-02 0.000E+00

     negative rho (up, down):  1.298E-02 0.000E+00

     negative rho (up, down):  1.298E-02 0.000E+00

     negative rho (up, down):  1.298E-02 0.000E+00

     negative rho (up, down):  1.298E-02 0.000E+00

     negative rho (up, down):  1.298E-02 0.000E+00

     negative rho (up, down):  1.298E-02 0.000E+00

     negative rho (up, down):  1.298E-02 0.000E+00

     negative rho (up, down):  1.298E-02 0.000E+00

     negative rho (up, down):  1.298E-02 0.000E+00

     negative rho (up, down):  1.298E-02 0.000E+00

     negative rho (up, down):  1.298E-02 0.000E+00

     negative rho (up, down):  1.298E-02 0.000E+00

     negative rho (up, down):  1.298E-02 0.000E+00

     negative rho (up, down):  1.298E-02 0.000E+00

     negative rho (up, down):  1.298E-02 0.000E+00

     negative rho (up, down):  1.298E-02 0.000E+00

     negative rho (up, down):  1.298E-02 0.000E+00

     negative rho (up, down):  1.298E-02 0.000E+00

     negative rho (up, down):  1.298E-02 0.000E+00

     negative rho (up, down):  1.298E-02 0.000E+00

     negative rho (up, down):  1.298E-02 0.000E+00
 BEEFens 2000 ensemble energies
             -0.610276970485305E+02
             -0.361921899346316E+01
             -0.159004296134088E+02
              0.431773537397533E+02
             -0.222365008370684E+02
             -0.206179719138610E+02
             -0.354998597000964E+02
             -0.870226797691653E+02
             -0.467093293146223E+02
             -0.474761384476900E+02
             -0.371161497954845E+02
              0.231964649728837E+01
              0.408358251776383E+01
              0.759583665203681E+01
              0.267575324844108E+01
              0.477509123095585E+02
             -0.209917926197499E+02
             -0.230741007316283E+02
              0.194064040935391E+02
             -0.113002807384994E+03
              0.539388014575003E+02
             -0.290804522590913E+02
             -0.337389401444761E+01
             -0.114651606380739E+02
             -0.881542152465488E+01
             -0.466339331467574E+01
              0.887649008406433E+02
             -0.188383270394532E+02
             -0.905124379089546E+01
             -0.521420755088994E+02
              0.819216437812552E+02
             -0.187496172596248E+02
             -0.377122715324082E+02
              0.250241020773424E+02
             -0.285863773911308E+01
              0.165506531128091E+02
             -0.485252013571602E+01
              0.108166486009959E+02
              0.290298090080467E+02
             -0.103818418356787E+03
              0.561505616651145E+02
              0.143111270671071E+02
             -0.179036680847753E+01
             -0.363128467431505E+02
              0.123840768745809E+02
             -0.147833700891900E+02
              0.401047071453098E+02
              0.366762569813176E+02
             -0.309158187595436E+02
             -0.276670940224139E+02
             -0.329919913305378E+02
             -0.354244844280498E+02
              0.137569544225636E+02
             -0.493703245981955E+02
              0.116510887714089E+02
              0.626531092725709E+02
              0.639418413282065E+02
              0.357700925641634E+02
              0.155085202130168E+02
              0.272380161116411E+02
              0.896558068853631E+02
              0.213462747479016E+02
             -0.551589791577949E+02
             -0.157681133742083E+02
             -0.237513939188757E+02
              0.633128223886776E+02
             -0.777465026518926E+02
             -0.674980836337244E+02
             -0.261335912006029E+02
             -0.659560825312406E+01
             -0.472908197276463E+02
              0.272239774524109E+02
              0.807866753494000E+01
              0.875904113345950E+01
             -0.399413718300831E+02
             -0.348747794627535E+02
             -0.545114280469783E+02
              0.391985225235408E+02
             -0.297824780718920E+02
              0.267071679732541E+02
             -0.720734442866638E+01
             -0.319536936624147E+02
             -0.578950429430048E+02
             -0.177342239726203E+02
             -0.912739367709605E+01
             -0.125470730760072E+02
              0.414500094100288E+02
              0.687087064944197E+02
             -0.388090749622432E+02
             -0.798986830315207E+02
             -0.220668458253450E+02
              0.112101022527609E+03
             -0.595596617273952E+02
              0.357757313349574E+02
             -0.963549625541066E+01
             -0.666468754084507E+02
              0.255935587955481E+02
              0.399782778350278E+02
             -0.199565161366030E+02
              0.401802942337290E+02
             -0.297268149470583E+02
             -0.481490520706882E+02
              0.871222283183225E+02
              0.456290402579083E+02
              0.337742403852193E+02
              0.147034736329954E+02
              0.206932555117178E+02
              0.860949220941083E+02
             -0.258292606035759E+02
              0.790009084792052E+01
             -0.143152031563888E+03
              0.182145502666727E+02
             -0.719783937615820E+02
              0.151705610884898E+02
              0.205822557464025E+02
             -0.334929345222976E+02
             -0.559921438057182E+02
              0.653573713418189E+01
             -0.305833122145508E+02
              0.310232837648834E+02
             -0.532375910342053E+02
              0.167395909888796E+01
             -0.358996606495633E+02
             -0.425033455416707E+01
             -0.101411658683270E+01
              0.182448884030032E+02
              0.141594292309924E+01
             -0.655039101107991E+01
              0.594074223118771E+02
              0.913290179765825E+02
              0.486803457593453E+02
              0.833962290823064E+02
             -0.115904226690932E+02
              0.143338367501157E+02
              0.544014044703388E+02
             -0.110618396915970E+02
             -0.740073144704893E+02
             -0.386545355970155E+02
             -0.524454446621698E+02
             -0.278334719475114E+02
              0.328654064168026E+02
             -0.117433429531630E+03
             -0.187881624672953E+02
              0.416482871932654E+02
             -0.388409063727247E+02
             -0.366867046733418E+02
              0.547379969109335E+02
              0.403311292101789E+02
             -0.355642847858332E+02
              0.139491908771387E+02
             -0.274678400461629E+02
              0.345199357980362E+02
              0.448643222152492E+01
              0.211721216484328E+02
             -0.889334887946931E+02
             -0.482804947898088E+02
             -0.100196311781353E+02
              0.319136591652984E+01
             -0.369151887464718E+02
              0.106619663132767E+03
             -0.231679669179050E+02
             -0.400267552977072E+02
              0.390912874839864E+02
             -0.496642085461971E+02
             -0.365333694071438E+02
              0.326537173854740E+02
              0.125131961602106E+02
              0.165343246443584E+02
              0.117403013947998E+02
             -0.133404396623103E+02
              0.225804060747522E+02
              0.593360429931007E+02
             -0.313119017087475E+02
              0.163572897091568E+02
              0.939394330715299E+02
              0.342440375526617E+02
             -0.732176038569037E+01
             -0.189631510376145E+02
              0.154191732573833E+03
             -0.165379864022392E+02
              0.365367194418159E+02
              0.196092022613803E+02
              0.363090318612084E+02
              0.896977446193434E+02
              0.545361511394347E+02
             -0.242155837222792E+01
              0.229054741933182E+02
              0.487558257264157E+02
              0.365520899955133E+02
             -0.528970063150059E+02
              0.941120452433677E+02
             -0.830472574325814E+02
             -0.198617454407159E+02
              0.585815777894404E+02
              0.684861774756222E+01
              0.790842370526343E+01
              0.342388259157920E+02
              0.300049472312172E+02
              0.355490010028692E+02
             -0.640911967132583E+02
              0.288369458999512E+01
             -0.298897344245981E+02
             -0.872405174765431E+01
             -0.146371373657416E+01
             -0.729639785163877E+01
             -0.418402038367049E+01
              0.863970490785586E+02
             -0.101377025342609E+02
             -0.277869026254066E+02
             -0.497216444882349E+01
              0.140670620261029E+02
             -0.567313051119495E+02
             -0.410229794010520E+02
             -0.383877715559597E+02
             -0.633552998689530E+02
             -0.170564371040714E+02
             -0.449664650998605E+02
              0.164356878071942E+02
             -0.238069843458076E+01
             -0.105198931429893E+02
             -0.938679035354053E+01
              0.810548944123769E+01
             -0.243497966510262E+02
              0.692922796991160E+02
             -0.812038889476570E+02
             -0.141803710231046E+02
             -0.174794131303514E+02
              0.182837057772743E+02
              0.215585206223021E+02
             -0.466359978220237E+02
             -0.202463493185959E+02
              0.443378982856351E+02
             -0.277282231112443E+02
              0.187745578950540E+02
              0.384725032031853E+02
             -0.322190848590742E+01
              0.114742886710102E+03
             -0.230538329641995E+02
             -0.342776996153531E+02
              0.578906537826913E+01
             -0.229737643750266E+02
              0.530471993746212E+02
             -0.339863337667615E+02
              0.107213088741535E+02
              0.643263222495303E+02
             -0.127128183112187E+02
              0.120870521739253E+03
              0.126565761624298E+03
             -0.653620522071003E+02
              0.593676144064873E+02
              0.167759963272475E+02
             -0.520844031552253E+02
              0.217071811115037E+02
              0.356333462517607E+02
              0.365262775507147E+02
              0.136322646823822E+01
              0.160701720016668E+02
              0.699987738797415E+02
             -0.248183856023461E+02
              0.181924562293090E+02
              0.742742716416047E+02
             -0.374504862482359E+02
             -0.131024565766766E+02
              0.511801556603685E+02
              0.299039871215969E+02
              0.784286969512336E+02
              0.224612038788358E+02
              0.633265115921137E+01
              0.281805011696619E+02
              0.385618629707349E+02
             -0.474775079498275E+02
              0.336385299217466E+01
              0.131318920479316E+02
              0.114250962436755E+02
              0.221868604052301E+02
             -0.578321210942259E+02
              0.367657750481582E+02
             -0.446124360063425E+02
             -0.349175622830814E+02
              0.179174867761626E+02
             -0.181951542043859E+02
              0.558204404409192E+02
             -0.256759091152044E+02
              0.268387283005743E+02
              0.369729326031490E+02
              0.833352786882749E+02
              0.577552249616834E+02
              0.464666251835802E+02
             -0.105685031562006E+02
             -0.396272066629820E+01
             -0.333874243773546E+02
              0.755107709968649E+02
              0.801545263716457E+02
              0.364032249655581E+02
             -0.193525251824329E+02
              0.514444859080199E+02
             -0.162849993550210E+02
              0.215746697485633E+02
              0.618244888940906E+02
              0.211240310896656E+01
             -0.104983422170878E+02
             -0.283998788467670E+02
             -0.515070166942546E+02
              0.950574976042325E+02
              0.442657240958500E+02
             -0.562544063547127E+02
             -0.974206180763758E+01
              0.251268990674491E+02
             -0.100330013929192E+02
              0.595635436291879E+02
              0.152881792551603E+02
              0.803451755770767E+02
              0.281318088521023E+02
             -0.265040267187061E+02
              0.249801544752435E+02
             -0.505507786680062E+01
             -0.324872178856749E+02
              0.134051292827359E+02
              0.206432927009268E+02
              0.937861617479957E+02
              0.801532986367565E+02
              0.554146365337236E+02
              0.734218316304227E+02
              0.805758655016592E+01
             -0.275094758061399E+02
              0.163803912718164E+02
             -0.369824046294075E+02
             -0.479442631399679E+02
             -0.566686349059823E+02
             -0.268368174869995E+02
             -0.110291878263173E+03
             -0.293430854664367E+02
             -0.842102804689847E+02
              0.211234912339274E+02
             -0.479578486638609E+02
              0.399584909877305E+02
             -0.946850970400463E+02
             -0.331647796748298E+02
              0.550577700061235E+02
              0.208750003879572E+02
             -0.835552186553792E+02
              0.633777576840487E+02
             -0.258411318221238E+02
              0.515478514173285E+02
             -0.244001050511446E+02
             -0.755652441679757E+02
              0.112897279503197E+02
             -0.614973671096025E+02
             -0.168399142287758E+02
             -0.150165762304245E+01
              0.420505573804880E+02
              0.127694141565418E+03
             -0.464034543471123E+02
             -0.364532614047087E+02
             -0.101590530345453E+01
             -0.130889623241965E+02
             -0.826871841901199E+02
             -0.599918085739894E+02
              0.519847534880275E+02
             -0.290021799491873E+02
              0.170387616619675E+02
             -0.492046511715544E+02
             -0.132826209376074E+02
             -0.439489093241627E+02
              0.568171957747452E+02
              0.151510061347216E+02
             -0.232921814419910E+02
             -0.127942463346071E+02
              0.674614183122989E+01
             -0.624595580620627E+01
              0.443780316936626E+02
             -0.253445805495990E+02
              0.285161702926121E+01
              0.341235356728830E+02
              0.171893182147714E+02
             -0.161193585921129E+02
              0.157105499870215E+03
              0.541374374904243E+02
              0.121339788948357E+01
              0.161824063475208E+02
             -0.618272910086932E+02
              0.316799903495025E+02
             -0.725950810691875E+02
             -0.253883201858442E+02
             -0.525871632292349E+02
             -0.221049308502564E+02
              0.572409858478865E+02
             -0.540227190865723E+02
              0.162345723142497E+02
             -0.411081417617982E+01
              0.387878683158391E+01
             -0.435600075697856E+02
             -0.480547117611699E+02
             -0.404753932174083E+01
             -0.426744592777164E+02
             -0.218320608501625E+02
             -0.440655742422179E+02
             -0.119614185264464E+02
             -0.360798454912864E+02
             -0.519233031563521E+02
              0.214032077230317E+02
             -0.209974687858726E+02
              0.189151731985730E+02
              0.980455766886826E+01
             -0.742190625440520E+02
             -0.550924011615245E+02
             -0.400972078894779E+02
              0.356091497767316E+02
              0.267628339196796E+01
             -0.630114727263029E+02
              0.588920107402432E+02
             -0.403467044916476E+02
              0.547998490257636E+02
             -0.291428874373510E+02
             -0.448688666723471E+02
              0.299656234021338E+02
             -0.661575543043181E+02
             -0.381770134920158E+02
              0.676092694320912E+02
              0.205143645600475E+02
             -0.362674269335109E+02
              0.492686297855066E+02
             -0.175058498393128E+02
             -0.325014552181935E+02
             -0.303508015042721E+02
             -0.503495150780655E+02
              0.250937638423754E+02
             -0.937926490421766E+02
             -0.844528328355711E+02
             -0.739503256764624E+01
             -0.308374284624560E+02
             -0.579040160923116E+02
              0.725930665541459E+02
              0.132282733321411E+03
             -0.362243074188503E+02
             -0.256918416111483E+01
             -0.640552711606907E+02
              0.654073650246336E+02
              0.172036719645781E+02
             -0.183059658438220E+02
             -0.412033589233757E+02
              0.149432669391714E+02
             -0.589432632273344E+02
             -0.198578065323560E+02
             -0.909505555708496E+02
              0.338994879187085E+02
              0.169635005944515E+02
              0.181536204690838E+01
             -0.712156832346182E+01
             -0.332104932515656E+02
             -0.765678960726268E+01
              0.126283950970990E+03
             -0.199791435151153E+02
             -0.440268348524421E+02
             -0.687742200573206E+02
              0.110096372296920E+02
             -0.344288581730557E+02
              0.597042464785045E+01
              0.263334166830368E+02
              0.102459046038478E+02
              0.279898365914687E+02
              0.120895873248580E+02
              0.632784977870867E+02
              0.318149163461474E+02
             -0.328574175308808E+02
              0.358581686961569E+02
              0.381442022156602E+02
              0.121573532408330E+02
              0.489281328994763E+02
             -0.226465127155197E+02
              0.769699377653028E+02
              0.173762013946994E+02
             -0.274053387515230E+02
             -0.727744982180653E+01
             -0.187366170898504E+02
              0.262737646915126E+02
             -0.235780165112910E+02
             -0.189749960036210E+00
             -0.857659403155856E+01
              0.814059541079617E+02
              0.503321884253935E+02
             -0.690670617227628E+02
             -0.481492484270706E+01
             -0.558269868894670E+02
             -0.160122465549442E+02
             -0.269631260392217E+02
              0.382134018385455E+01
              0.578341368286029E+00
             -0.259248275792286E+02
              0.823550830896610E+01
             -0.607633086641863E+01
             -0.129044769287472E+02
              0.863718336892305E+02
              0.182642285701443E+02
             -0.811584261460081E+02
             -0.460545089571516E+02
              0.950275294890394E+02
              0.279217765397550E+02
             -0.107265164338980E+02
              0.105176539368139E+03
             -0.195656105006555E+02
             -0.123445894231508E+02
             -0.545703173585116E+01
              0.108420838617188E+02
              0.274244654969973E+02
              0.782245082309780E+01
              0.306953319334110E+02
             -0.188483169047303E+02
             -0.305993178085332E+02
             -0.420074832929566E+02
             -0.479654643386019E+02
              0.466260364261844E+02
              0.127641713235800E+02
              0.389797190809089E+02
              0.134395985811134E+02
              0.860654651086660E+02
              0.157520362250815E+02
             -0.850273353507527E+02
             -0.336353546553539E+02
              0.133970021205419E+02
             -0.304384885689142E+02
              0.630109160837811E+02
             -0.896067661727693E+01
              0.149653278975068E+02
              0.500293354617276E+02
             -0.711714272954268E+02
              0.150565158609579E+03
              0.209862242979652E+02
              0.272612035507701E+02
              0.349767255921047E+02
              0.104158733094999E+02
             -0.156721755360059E+01
              0.360255696972017E+02
             -0.359260838688178E+02
              0.778043477417291E+02
              0.689107315685420E+02
             -0.408312157571117E+02
              0.150680334959191E+02
              0.674235609810929E+02
             -0.225096049934128E+02
              0.155399395691012E+02
              0.437021220861607E+02
              0.424530467142023E+02
             -0.789104659333649E+02
             -0.153138720579392E+02
             -0.357740312633606E+02
             -0.152671564107976E+01
             -0.771372207750557E+01
             -0.540122488697739E+01
             -0.181377892931304E+02
             -0.295704426948100E+02
              0.643785166521531E+01
              0.112095492251568E+02
              0.538717119442925E+02
             -0.392878248981460E+02
              0.377037238304197E+02
              0.441341579597612E+02
             -0.187128759610655E+02
              0.876539508400665E+02
             -0.701615921896538E+02
             -0.103758778365474E+03
             -0.663086567169435E+01
             -0.273838373016747E+01
              0.385709295352262E+01
              0.793891781335931E+02
             -0.107197770246571E+02
              0.419102899237121E+02
              0.446997709210976E+02
              0.387361309479841E+02
             -0.998472228272772E+01
              0.630829697971402E+02
             -0.134580921497037E+02
             -0.309621387614089E+02
             -0.481675151243757E+02
              0.593819614590116E+01
              0.371623990584751E+02
             -0.603428201786502E+01
              0.394852749936855E+02
             -0.173563717612421E+01
              0.658392419381576E+02
              0.188247828692282E+02
              0.100240715027125E+02
             -0.121783852452990E+02
              0.333880068905290E+02
              0.364792359482557E+02
              0.233515153385654E+02
             -0.526477106986192E+00
             -0.553623066377547E+02
              0.262396669762980E+02
              0.176313639405635E+02
              0.404521308687895E+02
              0.273957701747876E+02
              0.374438872756734E+02
             -0.608573557056533E+01
              0.253041194039495E+02
             -0.300139167081957E+02
             -0.199348629527685E+01
             -0.572179967937574E+02
             -0.309715534329314E+02
              0.381163261559563E+02
             -0.940645334722806E+02
              0.295842325640659E+02
              0.184846856829129E+02
              0.845019108488398E+02
             -0.301324755163027E+02
              0.331350899488203E+02
             -0.138301382321429E+02
             -0.466723515042449E+02
             -0.765237151709365E+02
             -0.534583746990941E+01
             -0.865192617042398E+02
              0.200206770815207E+02
             -0.248686305494203E+02
              0.307629315766639E+02
              0.238228585357319E+02
             -0.242843820073174E+02
             -0.267253862467937E+02
              0.393317644764374E+02
             -0.591596843059187E+02
             -0.117482061852984E+02
             -0.197064717823182E+02
              0.214276213366308E+02
             -0.888258178292045E+01
              0.363500474857068E+01
             -0.201584548399867E+02
              0.561734578801911E+02
             -0.442910748113623E+02
              0.793283455581229E+01
              0.588849490702854E+02
             -0.325450022917902E+02
              0.362435935030345E+01
             -0.880585544342625E+01
             -0.673185480977573E+02
             -0.484707657188630E+02
             -0.862437626898589E+01
              0.242449641655110E+02
              0.304194219279843E+02
              0.863648715967321E+01
             -0.419725495970806E+01
              0.152903334465897E+02
             -0.442200498763735E+02
              0.329535044451842E+01
             -0.534142664650613E+02
             -0.326211271473794E+02
              0.477554712659613E+02
             -0.296802050166619E+02
              0.626438373100615E+02
             -0.216139064958227E+02
              0.355596412520452E+02
              0.243224572019340E+02
             -0.647537962077197E+02
             -0.281880967463662E+02
              0.936765928507162E+01
             -0.374065645079085E+02
             -0.341943308510523E+02
             -0.834850282166085E+02
             -0.542506404949718E+02
             -0.513328951522171E+02
             -0.418088630020422E+02
             -0.980253793533905E+00
              0.100842258607007E+02
              0.110505984532836E+01
              0.154743011110063E+02
             -0.552624985000270E+02
              0.142718073862261E+02
              0.258401527283197E+02
             -0.670681740742844E+02
[...]
              0.284675178024906E+02
              0.142529350802953E+03
              0.244243248384465E+02
              0.123586768328427E+02
             -0.466935735445502E+02
             -0.640877312994528E+02
             -0.189822387541716E+02
              0.331410556740066E+02
             -0.431387419531495E+01
              0.191486705250388E+02
              0.338045026302765E+02
             -0.589686462948974E+02
              0.224021819902588E+02
              0.583883059631989E+02
              0.555934080598377E+02
             -0.424054555541511E+01
             -0.134044220259511E+01
             -0.998010666555990E+01
             -0.484842512323934E+02
             -0.678904621441843E+02
              0.789692130671211E+02
             -0.528346127953833E+01
             -0.590837835564658E+02
              0.174548833925235E+01
             -0.206908110036634E+02
              0.943202013297690E+02
             -0.217686084612358E+02
             -0.355577077574605E+02
              0.337261481582317E+02
             -0.146663438349975E+02
              0.392149676182569E+02
             -0.235325060993227E+01
              0.101587827465956E+03
              0.492441195020304E+02
             -0.505888742710187E+01
             -0.324043976594025E+02
              0.233935703932322E+02
             -0.531483178906076E+02
             -0.128141220341577E+02
              0.589164799070522E+02
             -0.289130987388468E+02
             -0.440632235052061E+02
             -0.224394253099061E+02
              0.521341424122091E+02
              0.125372431572221E+02
             -0.853310550655036E+02
              0.305883536034987E+02
              0.152566935793250E+02
              0.583876355902623E+01
             -0.516052744458497E+02
             -0.372563189653522E+01
              0.324907486644030E+02
              0.515369706365356E+02
              0.636137198729051E+02
              0.230847600504004E+02
              0.787812640950762E+00
             -0.501004912649862E+02
             -0.512340667284510E+02
             -0.751403040534224E+02
             -0.623338570419173E+01
              0.310866017820922E+02
             -0.381050229213739E+01
              0.549550825176254E+02
             -0.319790944145975E+02
              0.167232518186337E+02
             -0.103910268913772E+02
             -0.291112398648675E+02
              0.588884708167960E+02
              0.794950385447146E+01
              0.607688813477369E+02
              0.513198845410398E+01
              0.266109048813347E+02
             -0.193444975164242E+02
              0.589356114892722E+02
             -0.112460401615851E+02
             -0.120750269083906E+00
             -0.794311337464052E+02
             -0.128758043334035E+02
              0.722825368921817E+02
              0.676653471254751E+02
              0.253150220970913E+02
             -0.131144510526241E+02
              0.346422046579244E+01
             -0.174700631477619E+02
             -0.215381748984171E+01
              0.912613288310447E+02
              0.127564480696299E+01
             -0.191981605719434E+02
             -0.111322453588936E+03
             -0.554973067978350E+02
             -0.377058224553238E+02
             -0.661916088971826E+02
             -0.558814269822391E+02
             -0.686434903714930E+02
             -0.449592728543046E+02
             -0.412339653320596E+02
             -0.454421555431416E+02
              0.485962681711193E+02
             -0.295064871461614E+02
             -0.999991012839143E+02
              0.421273709836847E+02
             -0.261837837138565E+02
             -0.795005686220876E+02
              0.949242765319374E+02
             -0.221131068508444E+02
              0.228830825930879E+02
              0.457220879458963E+02
             -0.126805957803913E+01
              0.255728634635516E+02
              0.471079294095438E+01
              0.417000794534843E+00
             -0.151417384800685E+02
             -0.719830220194854E+02
              0.133906589443988E+02
             -0.130033812904966E+03
              0.628051975754313E+02
             -0.442854785468360E+02
             -0.163801884718265E+02
             -0.159044367324651E+02
              0.726063369751213E+01
             -0.228548465514948E+02
              0.298600909132775E+02
             -0.523586226531655E+02
              0.369192926073333E+02
              0.373352463219500E+02
              0.168854495089121E+02
              0.101179945513009E+02
              0.198994964270152E+02
              0.627277438297170E+01
              0.311886339832076E+02
             -0.803253850552412E+01
             -0.596277554075410E+02
              0.763349954839919E+01
             -0.154405016114527E+02
             -0.196195110574303E+01
              0.509295447297219E+02
             -0.831175034494194E+02
             -0.147019094294262E+01
              0.584550601968260E+00
              0.100044312978793E+02
              0.320054531778107E+02
             -0.124268030948512E+02
              0.840071182753588E+02
              0.489714200590260E+02
             -0.184011469720856E+02
             -0.960151385640643E+01
              0.109858903601420E+01
              0.773681308070754E+02
             -0.588748655989957E+02
             -0.106307856521595E+03
              0.310850185351127E+02
             -0.163626127749027E+02
             -0.140498382288952E+02
              0.131490665712224E+02
              0.772605683020101E+02
              0.466481946402287E+02
             -0.154297772457556E+02
             -0.505866561822264E+02
             -0.555618097434034E+01
              0.307907681032834E+02
             -0.112559189820354E+02
             -0.759693460993558E+02
             -0.276266552015295E+01
             -0.895089972847928E+02
             -0.478240283199630E+02
              0.773105484660325E+02
             -0.486358456533608E+02
             -0.640390818007227E+02
             -0.517259231347401E+02
             -0.351810318651874E+02
              0.342940538069381E+02
              0.826167058069064E+02
             -0.362406297511683E+01
              0.277943247090089E+02
             -0.184871183333372E+02
             -0.697530224245938E+02
              0.467870422553339E+02
             -0.447670726322419E+02
              0.323117157696649E+02
              0.377766432558172E+02
             -0.664216199508604E+01
              0.392508210895303E+02
              0.440439541312478E+02
              0.101305454819500E+03
             -0.156557182556139E+02
             -0.459007303205954E+02
             -0.616200897513492E+02
             -0.124806575811462E+02
             -0.235174875363517E+02
              0.103518632984809E+03
             -0.451552429744543E+02
              0.105646186269973E+02
              0.972441717262518E+01
             -0.265655146565136E+02
             -0.803516506681220E+02
             -0.703484858705627E+01
              0.985186491399783E+02
              0.949597924269092E+01
              0.813033606293396E+01
             -0.530066373475048E+02
             -0.608148449197358E+02
             -0.572199106009602E+01
              0.502683972662226E+02
             -0.223391741067425E+02
              0.108504200389354E+03
             -0.438282526554116E+02
              0.147323351229085E+02
             -0.224754850332890E+02
             -0.721737116805157E+02
              0.171545463152842E+01
             -0.504600891220009E+02
             -0.764456380497010E+02
              0.622224054590583E+01
              0.236029712088498E+01
              0.516762451494519E+02
              0.188661009510262E+02
             -0.325502962280322E+02
              0.231282519875106E+02
             -0.815724017645847E+02
             -0.524158991185649E+02
              0.906695978706035E+02
              0.142466436156090E+02
             -0.188271406221978E+02
             -0.353737861602031E+02
             -0.270930336375784E+01
             -0.592282309908114E+01
              0.835299787361285E+02
              0.420039615230538E+02
             -0.166416600194038E+02
             -0.121879611523735E+02
             -0.429667885793870E+02
             -0.201383159394057E+02
             -0.673188128753356E+02
              0.462523980328908E+02
              0.550515920751417E+01
              0.145272259219815E+02
              0.157053565759646E+02
             -0.632127361102388E+00
             -0.169627208780489E+02
             -0.304270247880303E+01
             -0.101017154181109E+03
             -0.230564627501242E+02
             -0.770715208818575E+01
             -0.951459867693154E+01
              0.548849559133716E+02
              0.627339431210736E+02
              0.165670986013457E+02
             -0.975539336792201E+02
              0.650778374333601E+02
             -0.216223889463483E+02
             -0.378952984661199E+02
             -0.868849725144067E+02
             -0.388426375007141E+02
              0.567884210590670E+02
              0.246228217999403E+02
              0.523733147268405E+01
              0.294165316085961E+02
             -0.567850574914959E+02
             -0.424908572053572E+02
              0.518606999408787E+02
              0.389335767030212E+02
              0.521340373746080E+02
             -0.117630240039682E+01
              0.691583849522658E+01
              0.572245233425718E+02
              0.968013597381749E+02
             -0.301128270195686E+02
              0.325124191860168E+02
             -0.120179104670223E+02
             -0.414552991230720E+02
             -0.316272509866184E+02
             -0.302037288405043E+02
             -0.132028216404299E+02
             -0.525806465538034E+02
             -0.218204439457729E+02
             -0.141863063678935E+03
              0.370694005270595E+02
              0.208149012645657E+02
             -0.395668736404301E+01
             -0.382014676694952E+02
             -0.205162178706869E+02
             -0.529758635397335E+02
              0.151680691117491E+02
              0.824242460386521E+02
             -0.253096221552480E+02
             -0.163994130810987E+02
              0.239046927198320E+02
             -0.492176087280388E+02
              0.885089909538230E+02
              0.155238409020011E+02
              0.226611617112407E+02
              0.492867710133140E+02
              0.316328099602913E+01
              0.545093932792706E+02
              0.144033414143235E+02
             -0.106626963622276E+02
              0.736893640442960E+01
              0.717465580679573E+00
              0.730694047304977E+02
              0.101670060487950E+02
              0.121680124556507E+02
             -0.130636273663274E+02
              0.133006172678025E+02
             -0.916119846733081E+02
             -0.327804531222040E+02
             -0.459913424921901E+02
              0.487862875861800E+02
             -0.292939474165589E+02
             -0.661479299564224E+02
              0.541633729453813E+02
             -0.122735099340779E+02
              0.442234632673444E+02
             -0.903507632135901E+02
              0.233037635331960E+02
              0.858923280114303E+01
              0.585276779239643E+01
             -0.838676136966234E+01
             -0.907526703510200E+01
              0.482169620627585E+02
              0.201265622800327E+01
             -0.477754364853764E+02
             -0.177298346047282E+02
              0.277674744706534E+02
             -0.118552112286715E+03
             -0.934370126310705E+02
              0.396665203055500E+01
              0.118468342245545E+02
             -0.415892778246625E+02
             -0.389370896194691E+01
              0.112648863520643E+03
              0.308028741667353E+02
             -0.574375167687131E+02
              0.929278119505926E+01
             -0.969135913102872E+01
              0.106451900895430E+02
             -0.339552333248138E+02
              0.196654593330852E+02
              0.285835475171388E+02
             -0.302587360608271E+01
              0.108762064113439E+03
             -0.140577829919661E+02
             -0.317673450885236E+02
              0.144572526290818E+02
              0.468865869565195E+02
             -0.357669592253866E+02
             -0.317555561290867E+01
              0.970026471033122E+02
             -0.465384075637849E+01
              0.624395611384646E+02
              0.136335749921353E+02
             -0.904841707660142E+01
             -0.306096541697063E+02
              0.569081807095975E+02
             -0.517358665720766E+02
             -0.222480304280822E+01
             -0.171064200914926E+02
             -0.407377530497331E+02
              0.185579875544168E+02
              0.240633556759289E+02
              0.116110791523365E+02
              0.708069952361598E+00
             -0.386558143521293E+02
              0.216047179907783E+02
             -0.675107953561022E+01
             -0.247559449848287E+02
             -0.211649859565567E+02
              0.204156076299982E+02
             -0.599536044842682E+01
             -0.351214242553572E+02
             -0.107208412550235E+03
              0.103248667312676E+02
              0.249691342470697E+02
             -0.389832563763648E+02
             -0.212210963985573E+02
              0.811431483117986E+02
              0.658202530084563E+01
              0.313130809701918E+02
              0.395801814785921E+01
              0.323931184559573E+02
              0.648965653194091E+01
             -0.375061631533922E+02
             -0.239447261158111E+01
              0.878855411434517E+01
              0.275530507632480E+02
              0.785832830123013E+02
              0.509952231313447E+02
              0.202811679167041E+00
              0.169956285567295E+02
              0.616412173695965E+02
              0.237333155414652E+02
             -0.756500858068211E+02
             -0.275234193227662E+02
              0.151757643767240E+02
              0.566576091953647E+01
              0.256291150339041E+02
             -0.550500323799098E+02
              0.900819031414301E+01
              0.388222113609240E+02
              0.500541490243790E+02
             -0.437095061562397E+02
             -0.688596748908651E+01
             -0.209877761578275E+01
             -0.134857523984629E+02
             -0.366787422710012E+02
             -0.215913396174158E+02
             -0.208633341547264E+01
              0.798941859715694E+01
              0.423601538064879E+02
             -0.309828700487802E+02
              0.830407187954652E+02
              0.329242402968767E+02
              0.221257843758405E+02
              0.335109236285903E+02
              0.324513314269212E+02
              0.348089192867439E+02
              0.540065644843852E+02
             -0.436406362058439E+02
              0.622907939981623E+02
             -0.112878468923866E+03
              0.309052367090632E+02
             -0.107083227792142E+03
              0.858837226961393E+02
              0.694834872012922E+02
             -0.110289741228152E+02
             -0.495747358748563E+02
             -0.431823788694776E+02
             -0.626385976507482E+02
             -0.632177151115782E+02
              0.554757889158120E+02
              0.407714593090085E+02
              0.238021126865869E+02
              0.375173472064781E+02
              0.405436244187744E+02
             -0.384230930990295E+02
             -0.198624215203740E+02
              0.589414087585158E+02
             -0.116779114795433E+02
              0.554465757844066E+02
              0.703444980305584E+02
             -0.556880116681236E+01
             -0.710228975023194E+02
             -0.853628660026402E+00
             -0.246506033913440E+01
             -0.888090329804777E+01
             -0.179525674074762E+01
             -0.656378697017194E+02
             -0.211122325786057E+02
              0.546855733276388E+01
              0.907241733151960E+01
              0.471550217271277E+02
             -0.399949460414249E+02
              0.660213534138317E+02
             -0.427360382013901E+02
              0.211913884468635E+02
              0.352595055292226E+02
 
 BEEF-vdW xc energy contributions
           1 :   -786.645875334795     
           2 :    722.283447197875     
           3 :   -611.065305116588     
           4 :    480.412295978044     
           5 :   -357.941905008475     
           6 :    263.424438667922     
           7 :   -204.427750760722     
           8 :    176.371727657259     
           9 :   -166.557448531410     
          10 :    160.308574814170     
          11 :   -146.748393260834     
          12 :    122.037846551681     
          13 :   -89.2321056748690     
          14 :    55.3710822790891     
          15 :   -27.4896464164049     
          16 :    9.35161006477244     
          17 :  -0.168446684432070     
          18 :   -4.44800607646221     
          19 :    10.0039985943574     
          20 :   -20.4157106788296     
          21 :    36.3161393779873     
          22 :   -55.0519962106023     
          23 :    72.2012116326875     
          24 :   -83.7818797815609     
          25 :    88.0656753625316     
          26 :   -86.2007636098026     
          27 :    81.4546978148229     
          28 :   -77.5336308932592     
          29 :    76.8234857590593     
          30 :   -79.3873740125757     
          31 :   -86.3235389813995     
          32 :   -66.0692956760586     

     Writing output data file ./pwscf.save/
 
     init_run     :    361.95s CPU    366.83s WALL (       1 calls)
     electrons    :  16538.66s CPU  16708.30s WALL (       1 calls)
     forces       :    110.52s CPU    111.87s WALL (       1 calls)

     Called by init_run:
     wfcinit      :    313.71s CPU    317.47s WALL (       1 calls)
     potinit      :     44.56s CPU     44.91s WALL (       1 calls)
     hinit0       :      1.54s CPU      1.59s WALL (       1 calls)

     Called by electrons:
     c_bands      :  13665.49s CPU  13796.69s WALL (      23 calls)
     sum_band     :   1978.50s CPU   1996.35s WALL (      23 calls)
     v_of_rho     :    121.06s CPU    125.94s WALL (      23 calls)
     newd         :     40.14s CPU     55.79s WALL (      23 calls)
     PAW_pot      :    153.62s CPU    153.62s WALL (      23 calls)
     mix_rho      :    625.22s CPU    626.21s WALL (      23 calls)
     vdW_kernel   :     33.53s CPU     33.54s WALL (       1 calls)

     Called by c_bands:
     init_us_2    :     97.89s CPU     98.24s WALL (     624 calls)
     cegterg      :  12680.33s CPU  12810.51s WALL (     299 calls)

     Called by *egterg:
     cdiaghg      :    120.40s CPU    120.47s WALL (    1944 calls)
     h_psi        :   8219.11s CPU   8265.39s WALL (    1970 calls)
     s_psi        :   1354.47s CPU   1355.57s WALL (    1970 calls)
     g_psi        :     19.40s CPU     19.43s WALL (    1658 calls)

     Called by h_psi:
     h_psi:calbec :   1274.99s CPU   1277.87s WALL (    1970 calls)
     vloc_psi     :   5556.32s CPU   5558.47s WALL (    1970 calls)
     add_vuspsi   :   1356.02s CPU   1357.22s WALL (    1970 calls)

     General routines
     calbec       :   1860.74s CPU   1864.24s WALL (    2321 calls)
     fft          :     54.83s CPU     54.86s WALL (    3403 calls)
     ffts         :    197.99s CPU    198.04s WALL (   12888 calls)
     fftw         :   5672.44s CPU   5673.69s WALL (  381862 calls)
 
     Parallel routines
 
     PWSCF        :      4h45m CPU      4h48m WALL

 
   This run was terminated on:  14:26:51  16May2022            

=------------------------------------------------------------------------------=
   JOB DONE.
=------------------------------------------------------------------------------=
