
     Program PWSCF v.6.7MaX starts on 28Sep2022 at 10:34:45 

     This program is part of the open-source Quantum ESPRESSO suite
     for quantum simulation of materials; please cite
         "P. Giannozzi et al., J. Phys.:Condens. Matter 21 395502 (2009);
         "P. Giannozzi et al., J. Phys.:Condens. Matter 29 465901 (2017);
          URL http://www.quantum-espresso.org", 
     in publications or presentations arising from this work. More details at
     http://www.quantum-espresso.org/quote

     Parallel version (MPI), running on     1 processors

     MPI processes distributed on     1 nodes
     Reading input from och2oh-ensemble.in
Warning: card &CELL ignored
Warning: card / ignored

     Current dimensions of program PWSCF are:
     Max number of different atomic species (ntypx) = 10
     Max number of k-points (npk) =  40000
     Max angular momentum in pseudopotentials (lmaxx) =  3
     file Pt.pbe-n-kjpaw_psl.1.0.0.UPF: wavefunction(s)  6S 5D renormalized
     file O.pbe-nl-kjpaw_psl.1.0.0.UPF: wavefunction(s)  2S 2P renormalized
     file C.pbe-n-kjpaw_psl.1.0.0.UPF: wavefunction(s)  2S 2P renormalized
     file H.pbe-kjpaw_psl.1.0.0.UPF: wavefunction(s)  1S renormalized

     **************************************************************************
     Initializing libbeef V0.1.2 with the BEEF-vdW functional.
     Citation: Wellendorff et al., PRB 85, 235149 (2012).
     **************************************************************************


     IMPORTANT: XC functional enforced from input :
     Exchange-correlation= BEEF-VDW
                           (   1   4  43  14   2   0   0)
     Any further DFT definition will be discarded
     Please, verify this is what you really want


     Subspace diagonalization in iterative solution of the eigenvalue problem:
     a serial algorithm will be used

 
     G-vector sticks info
     --------------------
     sticks:   dense  smooth     PW     G-vecs:    dense   smooth      PW
     Sum        4267    4267   1159               748409   748409  105431
 


     bravais-lattice index     =            0
     lattice parameter (alat)  =      16.0349  a.u.
     unit-cell volume          =   11913.5971 (a.u.)^3
     number of atoms/cell      =           42
     number of atomic types    =            4
     number of electrons       =       379.00
     number of Kohn-Sham states=          228
     kinetic-energy cutoff     =      60.0000  Ry
     charge density cutoff     =     240.0000  Ry
     scf convergence threshold =      1.0E-06
     mixing beta               =       0.7000
     number of iterations used =            8  local-TF  mixing
     Exchange-correlation= BEEF-VDW
                           (   1   4  43  14   2   0   0)

     celldm(1)=  16.034858  celldm(2)=   0.000000  celldm(3)=   0.000000
     celldm(4)=   0.000000  celldm(5)=   0.000000  celldm(6)=   0.000000

     crystal axes: (cart. coord. in units of alat)
               a(1) = (   1.000000   0.000000   0.000000 )  
               a(2) = (   0.500000   0.866025   0.000000 )  
               a(3) = (   0.000000   0.000000   3.336698 )  

     reciprocal axes: (cart. coord. in units 2 pi/alat)
               b(1) = (  1.000000 -0.577350  0.000000 )  
               b(2) = (  0.000000  1.154701  0.000000 )  
               b(3) = (  0.000000  0.000000  0.299697 )  


     PseudoPot. # 1 for Pt read from file:
     /users/bkreitz1/quantum-espresso/potentials/Pt.pbe-n-kjpaw_psl.1.0.0.UPF
     MD5 check sum: 04dc8a03c51ece93fc7b5889c2958091
     Pseudo is Projector augmented-wave + core cor, Zval = 10.0
     Generated using 'atomic' code by A. Dal Corso  v.6.7MaX
     Shape of augmentation charge: PSQ
     Using radial grid of 1277 points,  6 beta functions with: 
                l(1) =   0
                l(2) =   0
                l(3) =   1
                l(4) =   1
                l(5) =   2
                l(6) =   2
     Q(r) pseudized with 0 coefficients 


     PseudoPot. # 2 for O  read from file:
     /users/bkreitz1/quantum-espresso/potentials/O.pbe-nl-kjpaw_psl.1.0.0.UPF
     MD5 check sum: eef08af8b58d9ec80f8fdb78829eb7cf
     Pseudo is Projector augmented-wave + core cor, Zval =  6.0
     Generated using 'atomic' code by A. Dal Corso  v.6.7MaX
     Shape of augmentation charge: PSQ
     Using radial grid of 1095 points,  4 beta functions with: 
                l(1) =   0
                l(2) =   0
                l(3) =   1
                l(4) =   1
     Q(r) pseudized with 0 coefficients 


     PseudoPot. # 3 for C  read from file:
     /users/bkreitz1/quantum-espresso/potentials/C.pbe-n-kjpaw_psl.1.0.0.UPF
     MD5 check sum: a169b0ebad56f5ec0d79c4633f80bf22
     Pseudo is Projector augmented-wave + core cor, Zval =  4.0
     Generated using 'atomic' code by A. Dal Corso  v.6.7MaX
     Shape of augmentation charge: PSQ
     Using radial grid of 1073 points,  4 beta functions with: 
                l(1) =   0
                l(2) =   0
                l(3) =   1
                l(4) =   1
     Q(r) pseudized with 0 coefficients 


     PseudoPot. # 4 for H  read from file:
     /users/bkreitz1/quantum-espresso/potentials/H.pbe-kjpaw_psl.1.0.0.UPF
     MD5 check sum: ae98473e6dc62675f0d0baffdab24f65
     Pseudo is Projector augmented-wave, Zval =  1.0
     Generated using 'atomic' code by A. Dal Corso  v.6.7MaX
     Shape of augmentation charge: PSQ
     Using radial grid of  929 points,  2 beta functions with: 
                l(1) =   0
                l(2) =   0
     Q(r) pseudized with 0 coefficients 


     atomic species   valence    mass     pseudopotential
        Pt            10.00   195.08400     Pt( 1.00)
        O              6.00    15.99900     O ( 1.00)
        C              4.00    12.01100     C ( 1.00)
        H              1.00     1.00800     H ( 1.00)

     No symmetry found



   Cartesian axes

     site n.     atom                  positions (alat units)
         1           Pt  tau(   1) = (   0.0000000   0.0000000   1.0017346  )
         2           Pt  tau(   2) = (   0.3333333   0.0000000   1.0017346  )
         3           Pt  tau(   3) = (   0.6666667   0.0000000   1.0017346  )
         4           Pt  tau(   4) = (   0.1666667   0.2886751   1.0017346  )
         5           Pt  tau(   5) = (   0.5000000   0.2886751   1.0017346  )
         6           Pt  tau(   6) = (   0.8333333   0.2886751   1.0017346  )
         7           Pt  tau(   7) = (   0.3333333   0.5773503   1.0017346  )
         8           Pt  tau(   8) = (   0.6666667   0.5773503   1.0017346  )
         9           Pt  tau(   9) = (   1.0000000   0.5773503   1.0017346  )
        10           Pt  tau(  10) = (   0.1666667   0.0962250   1.2739001  )
        11           Pt  tau(  11) = (   0.5000000   0.0962250   1.2739001  )
        12           Pt  tau(  12) = (   0.8333333   0.0962250   1.2739001  )
        13           Pt  tau(  13) = (   0.3333333   0.3849002   1.2739001  )
        14           Pt  tau(  14) = (   0.6666667   0.3849002   1.2739001  )
        15           Pt  tau(  15) = (   1.0000000   0.3849002   1.2739001  )
        16           Pt  tau(  16) = (   0.5000000   0.6735753   1.2739001  )
        17           Pt  tau(  17) = (   0.8333333   0.6735753   1.2739001  )
        18           Pt  tau(  18) = (   1.1666667   0.6735753   1.2739001  )
        19           Pt  tau(  19) = (  -0.0002701   0.1928807   1.5423478  )
        20           Pt  tau(  20) = (   0.3332505   0.1908488   1.5470880  )
        21           Pt  tau(  21) = (   0.6664493   0.1929695   1.5419254  )
        22           Pt  tau(  22) = (   0.1666928   0.4817632   1.5406785  )
        23           Pt  tau(  23) = (   0.4997274   0.4816858   1.5407819  )
        24           Pt  tau(  24) = (   0.8330871   0.4815633   1.5418830  )
        25           Pt  tau(  25) = (   0.3333874   0.7701453   1.5410577  )
        26           Pt  tau(  26) = (   0.6683193   0.7713385   1.5472375  )
        27           Pt  tau(  27) = (   0.9984950   0.7710914   1.5450347  )
        28           Pt  tau(  28) = (  -0.0048075   0.0017657   1.8161934  )
        29           Pt  tau(  29) = (   0.3277307   0.0042034   1.8303408  )
        30           Pt  tau(  30) = (   0.6667237   0.0015240   1.8139338  )
        31           Pt  tau(  31) = (   0.1634844   0.2936378   1.8149309  )
        32           Pt  tau(  32) = (   0.4997527   0.2928506   1.8151650  )
        33           Pt  tau(  33) = (   0.8316417   0.2905884   1.8162711  )
        34           Pt  tau(  34) = (   0.3317464   0.5791789   1.8163583  )
        35           Pt  tau(  35) = (   0.6638014   0.5769283   1.8152214  )
        36           Pt  tau(  36) = (   0.9994307   0.5780053   1.8138336  )
        37           O   tau(  37) = (   0.3497130  -0.0061955   2.0664160  )
        38           C   tau(  38) = (   0.2302802   0.0591280   2.1634024  )
        39           H   tau(  39) = (   0.2228946   0.1875753   2.1502451  )
        40           H   tau(  40) = (   0.1150575   0.0058608   2.1341725  )
        41           O   tau(  41) = (   0.2731651   0.0311182   2.3211593  )
        42           H   tau(  42) = (   0.2750895  -0.0817154   2.3394002  )

     number of k points=    13  Marzari-Vanderbilt smearing, width (Ry)=  0.0200
                       cart. coord. in units 2pi/alat
        k(    1) = (   0.0000000   0.0000000   0.0000000), wk =   0.0800000
        k(    2) = (   0.0000000   0.2309401   0.0000000), wk =   0.1600000
        k(    3) = (   0.0000000   0.4618802   0.0000000), wk =   0.1600000
        k(    4) = (   0.2000000  -0.1154701   0.0000000), wk =   0.1600000
        k(    5) = (   0.2000000   0.1154701   0.0000000), wk =   0.1600000
        k(    6) = (   0.2000000   0.3464102   0.0000000), wk =   0.1600000
        k(    7) = (   0.2000000  -0.5773503   0.0000000), wk =   0.1600000
        k(    8) = (   0.2000000  -0.3464102   0.0000000), wk =   0.1600000
        k(    9) = (   0.4000000  -0.2309401   0.0000000), wk =   0.1600000
        k(   10) = (   0.4000000  -0.0000000   0.0000000), wk =   0.1600000
        k(   11) = (   0.4000000   0.2309401   0.0000000), wk =   0.1600000
        k(   12) = (   0.4000000  -0.6928203   0.0000000), wk =   0.1600000
        k(   13) = (   0.4000000  -0.4618802   0.0000000), wk =   0.1600000

     Dense  grid:   748409 G-vectors     FFT dimensions: (  80,  80, 270)

     Estimated max dynamical RAM per process >       9.15 GB

     Check: negative core charge=   -0.000001

     Initial potential from superposition of free atoms

     starting charge  378.99382, renormalised to  379.00000

     negative rho (up, down):  1.279E-02 0.000E+00


     %%%%%%%%%%%%%%%%%%%%%%%%%%%%%%%%%%%%%%%%%%%%%%%%%%%%%%%%%%%%%%%%%%%%%%%%
     %                                                                      %
     % You are using vdW-DF, which was implemented by the Thonhauser group. %
     % Please cite the following two papers that made this development      %
     % possible and the two reviews that describe the various versions:     %
     %                                                                      %
     %   T. Thonhauser et al., PRL 115, 136402 (2015).                      %
     %   T. Thonhauser et al., PRB 76, 125112 (2007).                       %
     %   K. Berland et al., Rep. Prog. Phys. 78, 066501 (2015).             %
     %   D.C. Langreth et al., J. Phys.: Condens. Matter 21, 084203 (2009). %
     %                                                                      %
     %                                                                      %
     % If you are calculating the stress with vdW-DF, please also cite:     %
     %                                                                      %
     %   R. Sabatini et al., J. Phys.: Condens. Matter 24, 424209 (2012).   %
     %                                                                      %
     %%%%%%%%%%%%%%%%%%%%%%%%%%%%%%%%%%%%%%%%%%%%%%%%%%%%%%%%%%%%%%%%%%%%%%%%


     Starting wfcs are  339 randomized atomic wfcs
     Checking if some PAW data can be deallocated... 

     total cpu time spent up to now is      379.3 secs

     Self-consistent Calculation

     iteration #  1     ecut=    60.00 Ry     beta= 0.70
     Davidson diagonalization with overlap
     ethr =  1.00E-02,  avg # of iterations =  2.4

     Threshold (ethr) on eigenvalues was too large:
     Diagonalizing with lowered threshold

     Davidson diagonalization with overlap
     ethr =  7.23E-04,  avg # of iterations =  2.9

     negative rho (up, down):  1.293E-02 0.000E+00

     total cpu time spent up to now is     1880.9 secs

     total energy              =  -27861.57514736 Ry
     estimated scf accuracy    <       2.90550827 Ry

     iteration #  2     ecut=    60.00 Ry     beta= 0.70
     Davidson diagonalization with overlap
     ethr =  7.67E-04,  avg # of iterations =  4.8

     negative rho (up, down):  1.143E-02 0.000E+00

     total cpu time spent up to now is     2596.9 secs

     total energy              =  -27861.74665758 Ry
     estimated scf accuracy    <       1.10750123 Ry

     iteration #  3     ecut=    60.00 Ry     beta= 0.70
     Davidson diagonalization with overlap
     ethr =  2.92E-04,  avg # of iterations =  4.2

     negative rho (up, down):  8.542E-03 0.000E+00

     total cpu time spent up to now is     3326.8 secs

     total energy              =  -27861.79838566 Ry
     estimated scf accuracy    <       0.38180178 Ry

     iteration #  4     ecut=    60.00 Ry     beta= 0.70
     Davidson diagonalization with overlap
     c_bands:  1 eigenvalues not converged
     ethr =  1.01E-04,  avg # of iterations = 10.3

     negative rho (up, down):  7.211E-03 0.000E+00

     total cpu time spent up to now is     4216.5 secs

     total energy              =  -27861.84501834 Ry
     estimated scf accuracy    <       0.17365547 Ry

     iteration #  5     ecut=    60.00 Ry     beta= 0.70
     Davidson diagonalization with overlap
     c_bands:  1 eigenvalues not converged
     ethr =  4.58E-05,  avg # of iterations =  7.3

     negative rho (up, down):  6.240E-03 0.000E+00

     total cpu time spent up to now is     4986.0 secs

     total energy              =  -27861.85018821 Ry
     estimated scf accuracy    <       0.04289554 Ry

     iteration #  6     ecut=    60.00 Ry     beta= 0.70
     Davidson diagonalization with overlap
     c_bands:  1 eigenvalues not converged
     c_bands:  1 eigenvalues not converged
     c_bands:  1 eigenvalues not converged
     ethr =  1.13E-05,  avg # of iterations = 11.3

     negative rho (up, down):  6.754E-03 0.000E+00

     total cpu time spent up to now is     6030.7 secs

     total energy              =  -27861.85963432 Ry
     estimated scf accuracy    <       0.06143125 Ry

     iteration #  7     ecut=    60.00 Ry     beta= 0.70
     Davidson diagonalization with overlap
     ethr =  1.13E-05,  avg # of iterations =  3.8

     negative rho (up, down):  1.387E-02 0.000E+00

     total cpu time spent up to now is     6741.0 secs

     total energy              =  -27861.85777970 Ry
     estimated scf accuracy    <       0.03553057 Ry

     iteration #  8     ecut=    60.00 Ry     beta= 0.70
     Davidson diagonalization with overlap
     c_bands:  1 eigenvalues not converged
     c_bands:  1 eigenvalues not converged
     ethr =  9.37E-06,  avg # of iterations = 11.1

     negative rho (up, down):  1.628E-02 0.000E+00

     total cpu time spent up to now is     7500.9 secs

     total energy              =  -27861.85843014 Ry
     estimated scf accuracy    <       0.00900500 Ry

     iteration #  9     ecut=    60.00 Ry     beta= 0.70
     Davidson diagonalization with overlap
     ethr =  2.38E-06,  avg # of iterations =  8.0

     negative rho (up, down):  2.125E-02 0.000E+00

     total cpu time spent up to now is     8249.2 secs

     total energy              =  -27861.85852574 Ry
     estimated scf accuracy    <       0.00689883 Ry

     iteration # 10     ecut=    60.00 Ry     beta= 0.70
     Davidson diagonalization with overlap
     ethr =  1.82E-06,  avg # of iterations =  8.3

     negative rho (up, down):  2.263E-02 0.000E+00

     total cpu time spent up to now is     8980.3 secs

     total energy              =  -27861.85860417 Ry
     estimated scf accuracy    <       0.00341631 Ry

     iteration # 11     ecut=    60.00 Ry     beta= 0.70
     Davidson diagonalization with overlap
     ethr =  9.01E-07,  avg # of iterations =  1.8

     negative rho (up, down):  2.216E-02 0.000E+00

     total cpu time spent up to now is     9635.7 secs

     total energy              =  -27861.85869431 Ry
     estimated scf accuracy    <       0.00060812 Ry

     iteration # 12     ecut=    60.00 Ry     beta= 0.70
     Davidson diagonalization with overlap
     ethr =  1.60E-07,  avg # of iterations =  4.0

     negative rho (up, down):  2.035E-02 0.000E+00

     total cpu time spent up to now is    10389.6 secs

     total energy              =  -27861.85871883 Ry
     estimated scf accuracy    <       0.00026340 Ry

     iteration # 13     ecut=    60.00 Ry     beta= 0.70
     Davidson diagonalization with overlap
     c_bands:  1 eigenvalues not converged
     ethr =  6.95E-08,  avg # of iterations =  9.8

     negative rho (up, down):  1.931E-02 0.000E+00

     total cpu time spent up to now is    11176.6 secs

     total energy              =  -27861.85871621 Ry
     estimated scf accuracy    <       0.00016172 Ry

     iteration # 14     ecut=    60.00 Ry     beta= 0.70
     Davidson diagonalization with overlap
     ethr =  4.27E-08,  avg # of iterations =  3.8

     negative rho (up, down):  1.885E-02 0.000E+00

     total cpu time spent up to now is    11871.5 secs

     total energy              =  -27861.85872217 Ry
     estimated scf accuracy    <       0.00006839 Ry

     iteration # 15     ecut=    60.00 Ry     beta= 0.70
     Davidson diagonalization with overlap
     ethr =  1.80E-08,  avg # of iterations =  2.0

     negative rho (up, down):  1.773E-02 0.000E+00

     total cpu time spent up to now is    12569.7 secs

     total energy              =  -27861.85871650 Ry
     estimated scf accuracy    <       0.00003489 Ry

     iteration # 16     ecut=    60.00 Ry     beta= 0.70
     Davidson diagonalization with overlap
     ethr =  9.21E-09,  avg # of iterations =  2.9

     negative rho (up, down):  1.679E-02 0.000E+00

     total cpu time spent up to now is    13311.8 secs

     total energy              =  -27861.85871669 Ry
     estimated scf accuracy    <       0.00002534 Ry

     iteration # 17     ecut=    60.00 Ry     beta= 0.70
     Davidson diagonalization with overlap
     ethr =  6.68E-09,  avg # of iterations =  1.5

     negative rho (up, down):  1.613E-02 0.000E+00

     total cpu time spent up to now is    13946.9 secs

     total energy              =  -27861.85871578 Ry
     estimated scf accuracy    <       0.00001348 Ry

     iteration # 18     ecut=    60.00 Ry     beta= 0.70
     Davidson diagonalization with overlap
     ethr =  3.56E-09,  avg # of iterations =  2.0

     negative rho (up, down):  1.517E-02 0.000E+00

     total cpu time spent up to now is    14630.3 secs

     total energy              =  -27861.85871473 Ry
     estimated scf accuracy    <       0.00000926 Ry

     iteration # 19     ecut=    60.00 Ry     beta= 0.70
     Davidson diagonalization with overlap
     ethr =  2.44E-09,  avg # of iterations =  2.0

     negative rho (up, down):  1.453E-02 0.000E+00

     total cpu time spent up to now is    15304.3 secs

     total energy              =  -27861.85871537 Ry
     estimated scf accuracy    <       0.00001036 Ry

     iteration # 20     ecut=    60.00 Ry     beta= 0.70
     Davidson diagonalization with overlap
     ethr =  2.44E-09,  avg # of iterations =  1.0

     negative rho (up, down):  1.417E-02 0.000E+00

     total cpu time spent up to now is    15912.7 secs

     total energy              =  -27861.85871579 Ry
     estimated scf accuracy    <       0.00000337 Ry

     iteration # 21     ecut=    60.00 Ry     beta= 0.70
     Davidson diagonalization with overlap
     ethr =  8.89E-10,  avg # of iterations =  2.0

     negative rho (up, down):  1.411E-02 0.000E+00

     total cpu time spent up to now is    16601.8 secs

     total energy              =  -27861.85871602 Ry
     estimated scf accuracy    <       0.00000214 Ry

     iteration # 22     ecut=    60.00 Ry     beta= 0.70
     Davidson diagonalization with overlap
     ethr =  5.65E-10,  avg # of iterations =  2.0

     negative rho (up, down):  1.408E-02 0.000E+00

     total cpu time spent up to now is    17214.8 secs

     End of self-consistent calculation

          k = 0.0000 0.0000 0.0000 ( 93455 PWs)   bands (ev):

   -19.8664 -17.6447  -9.8194  -7.4784  -6.2883  -6.2064  -5.5504  -5.0981
    -5.0689  -5.0634  -5.0616  -5.0505  -5.0350  -5.0314  -4.9946  -4.7559
    -4.5036  -4.5019  -4.5003  -4.4909  -4.4904  -4.4730  -4.0458  -4.0369
    -4.0272  -4.0212  -4.0207  -4.0100  -3.8130  -3.8113  -3.8093  -3.8086
    -3.8057  -3.7747  -3.5977  -3.5897  -3.5826  -3.5806  -3.5782  -3.5729
    -3.5680  -3.5662  -3.5617  -3.5506  -3.5386  -3.5176  -3.0146  -2.9790
    -2.9551  -2.9489  -2.9372  -2.9205  -2.8973  -2.8832  -2.8821  -2.8710
    -2.7364  -2.7344  -2.6649  -2.6506  -2.4851  -2.2523  -2.1655  -2.1397
    -2.1383  -2.1296  -2.0754  -2.0697  -2.0127  -1.9745  -1.9687  -1.9662
    -1.9505  -1.9403  -1.9329  -1.9225  -1.9104  -1.9084  -1.8935  -1.8855
    -1.8817  -1.8672  -1.8608  -1.7935  -1.7545  -1.7216  -1.7149  -1.7051
    -1.7035  -1.5817  -1.5769  -1.5620  -1.5577  -1.5319  -1.5281  -1.5023
    -1.4925  -1.4521  -1.4116  -1.4057  -1.3546  -1.3514  -1.3255  -1.2879
    -1.2861  -1.2472  -1.2471  -1.1975  -1.1684  -1.1017  -1.0961  -1.0920
    -1.0743  -1.0183  -0.8666  -0.7225  -0.6470  -0.6150  -0.6112  -0.6007
    -0.5980  -0.5950  -0.5857  -0.5320  -0.5276  -0.5218  -0.4710  -0.4338
    -0.4267  -0.4171  -0.3211  -0.2981  -0.2888  -0.2785  -0.2156  -0.1854
    -0.1804  -0.1273  -0.1186  -0.1112  -0.1044  -0.1029   0.0635   0.1215
     0.1345   0.1362   0.1403   0.1574   0.1987   0.2211   0.3732   0.3891
     0.3968   0.4121   0.4141   0.4593   0.4596   0.5387   0.5417   0.5695
     0.5741   0.5766   0.6041   0.6097   0.6109   0.6142   0.6331   0.6588
     0.7074   0.7161   0.7181   0.7413   0.7442   0.7738   0.7911   0.8183
     0.8189   0.8371   0.8508   0.8752   0.8802   0.8924   0.9002   0.9445
     0.9603   0.9639   0.9805   0.9884   0.9930   1.0028   1.0277   1.0829
     1.0839   1.0966   1.1003   1.1096   1.1305   1.2850   1.3206   1.3889
     1.4033   1.4197   1.4214   1.4261   1.4403   1.5460   2.2710   2.3057
     2.3115   2.3231   2.3518   2.3612   3.1557   4.6192   4.6326   4.6399
     4.6620   4.6746   5.2203   5.8145   6.1752   6.1775   6.2219   6.2269
     6.2435   6.2482   6.3636   6.9079

          k = 0.0000 0.2309 0.0000 ( 93490 PWs)   bands (ev):

   -19.8664 -17.6447  -9.8194  -7.3317  -6.2871  -6.0717  -5.6199  -5.4810
    -5.1664  -5.1494  -4.9512  -4.9123  -4.8576  -4.8186  -4.8114  -4.7508
    -4.6035  -4.5799  -4.4372  -4.4326  -4.4191  -4.3999  -4.1312  -4.0071
    -4.0027  -3.9778  -3.9738  -3.9135  -3.9043  -3.8493  -3.8412  -3.8314
    -3.8202  -3.7638  -3.7291  -3.7182  -3.6090  -3.6071  -3.5911  -3.5644
    -3.5584  -3.3954  -3.3792  -3.3738  -3.3565  -3.3320  -3.1093  -3.0866
    -3.0678  -3.0333  -3.0123  -2.9891  -2.9787  -2.8177  -2.8037  -2.7354
    -2.7148  -2.6825  -2.6627  -2.6434  -2.5109  -2.4297  -2.3578  -2.3216
    -2.2840  -2.2440  -2.2303  -2.1796  -2.1435  -2.1123  -2.1051  -2.1008
    -2.0867  -2.0518  -2.0361  -1.9662  -1.9458  -1.9384  -1.8715  -1.8626
    -1.8332  -1.8246  -1.7844  -1.7735  -1.7438  -1.6838  -1.6827  -1.6659
    -1.6592  -1.5971  -1.5886  -1.5659  -1.5561  -1.5473  -1.5262  -1.5007
    -1.4747  -1.4226  -1.4159  -1.3885  -1.3779  -1.3484  -1.3391  -1.3187
    -1.2785  -1.2739  -1.2594  -1.2052  -1.1557  -1.1177  -1.1078  -1.0895
    -1.0796  -1.0647  -1.0309  -1.0089  -0.9975  -0.9902  -0.9509  -0.8767
    -0.7367  -0.6931  -0.6692  -0.6374  -0.5951  -0.5659  -0.5537  -0.5349
    -0.5257  -0.4673  -0.3930  -0.3751  -0.3263  -0.2573  -0.2251  -0.2130
    -0.1796  -0.1683  -0.1464  -0.1095  -0.0896  -0.0547  -0.0163  -0.0045
     0.0191   0.0340   0.0463   0.1462   0.2256   0.2448   0.2637   0.2711
     0.2861   0.3241   0.3648   0.4003   0.4151   0.4339   0.4645   0.4898
     0.5142   0.5232   0.5450   0.5814   0.6312   0.6442   0.6661   0.7434
     0.7695   0.7916   0.8069   0.8271   0.8362   0.8631   0.8837   0.9323
     0.9522   0.9753   1.0081   1.0192   1.0427   1.0541   1.0656   1.0723
     1.0745   1.1127   1.1297   1.1630   1.2675   1.2893   1.3145   1.3226
     1.3312   1.3464   1.3766   1.3899   1.4074   1.4290   1.4577   1.5286
     1.5466   1.5587   1.7138   1.7219   1.7385   1.7729   1.9900   2.1923
     2.4283   2.9162   2.9321   3.0335   3.3663   4.0242   4.3544   4.5954
     5.0392   5.0450   5.1997   5.3376   5.6108   5.8928   6.0189   6.0528
     6.3736   6.4051   6.4203   6.4751

          k = 0.0000 0.4619 0.0000 ( 93540 PWs)   bands (ev):

   -19.8664 -17.6447  -9.8195  -6.9099  -6.2870  -6.2788  -5.7362  -5.4696
    -5.1995  -5.1829  -5.0319  -4.8279  -4.7715  -4.6690  -4.5546  -4.5216
    -4.4763  -4.4674  -4.3089  -4.2879  -4.2589  -4.2498  -4.2390  -4.1314
    -4.0936  -4.0879  -4.0427  -4.0365  -3.9932  -3.9597  -3.9040  -3.9001
    -3.8877  -3.6412  -3.6370  -3.6311  -3.6246  -3.6145  -3.6039  -3.3889
    -3.3814  -3.3540  -3.3442  -3.3371  -3.3202  -3.1576  -3.0728  -3.0533
    -3.0388  -3.0238  -2.9934  -2.9828  -2.9166  -2.8983  -2.8891  -2.8476
    -2.8334  -2.7158  -2.6986  -2.6622  -2.6483  -2.5539  -2.5354  -2.5041
    -2.4698  -2.4530  -2.3815  -2.3318  -2.2961  -2.2402  -2.2199  -2.2073
    -2.1584  -2.1383  -2.1145  -2.0502  -1.9962  -1.9846  -1.9592  -1.9060
    -1.8744  -1.8499  -1.8417  -1.8346  -1.8011  -1.7647  -1.7492  -1.7374
    -1.7320  -1.7253  -1.7220  -1.6903  -1.6774  -1.6254  -1.5821  -1.5781
    -1.5683  -1.5558  -1.5359  -1.5085  -1.4073  -1.3979  -1.3608  -1.3220
    -1.3039  -1.2914  -1.2722  -1.2465  -1.2181  -1.1455  -1.1180  -1.1038
    -1.0964  -1.0358  -0.9948  -0.9870  -0.9319  -0.8503  -0.8320  -0.7649
    -0.7441  -0.7052  -0.6803  -0.6659  -0.6383  -0.6293  -0.6145  -0.5572
    -0.5447  -0.5335  -0.5228  -0.4994  -0.4939  -0.4677  -0.4444  -0.4261
    -0.3735  -0.3300  -0.2974  -0.2781  -0.2257  -0.2016  -0.1437  -0.0966
    -0.0807   0.0009   0.0323   0.0993   0.1664   0.1787   0.2220   0.2352
     0.2535   0.2789   0.3020   0.3460   0.3628   0.4014   0.4172   0.4408
     0.5061   0.5218   0.5472   0.5674   0.5850   0.5982   0.6610   0.7269
     0.7836   0.8193   0.8319   0.8418   0.8681   0.8861   0.9563   0.9795
     0.9898   1.0726   1.0776   1.0896   1.1454   1.1601   1.1855   1.2163
     1.2514   1.2984   1.3076   1.3192   1.3336   1.3425   1.3560   1.3629
     1.5183   1.5272   1.5597   1.5735   1.5791   1.7424   1.7946   1.8051
     2.1971   2.2573   2.3389   2.6077   2.6199   2.7185   3.0093   3.0295
     3.3329   3.3632   3.8232   3.8321   3.8790   4.0509   4.1229   4.1723
     4.2477   4.4822   4.4981   4.6092   5.1444   5.2729   5.6732   5.7500
     6.0947   6.2085   6.2963   6.7352

          k = 0.2000-0.1155 0.0000 ( 93490 PWs)   bands (ev):

   -19.8664 -17.6447  -9.8195  -7.3318  -6.2883  -6.0704  -5.6218  -5.4805
    -5.1644  -5.1489  -4.9500  -4.9125  -4.8619  -4.8143  -4.8067  -4.7536
    -4.6073  -4.5875  -4.4399  -4.4298  -4.4203  -4.3934  -4.1345  -4.0033
    -3.9993  -3.9884  -3.9778  -3.9079  -3.9047  -3.8484  -3.8426  -3.8273
    -3.8240  -3.7671  -3.7242  -3.7144  -3.6149  -3.6035  -3.5903  -3.5609
    -3.5576  -3.3950  -3.3758  -3.3744  -3.3616  -3.3292  -3.1243  -3.0959
    -3.0729  -3.0300  -3.0126  -2.9865  -2.9646  -2.8032  -2.7964  -2.7334
    -2.7120  -2.6936  -2.6552  -2.6451  -2.5141  -2.4254  -2.3543  -2.3230
    -2.2814  -2.2311  -2.1996  -2.1882  -2.1556  -2.1359  -2.1123  -2.1073
    -2.0878  -2.0398  -1.9843  -1.9592  -1.9424  -1.9322  -1.9057  -1.8681
    -1.8582  -1.8216  -1.7900  -1.7768  -1.7464  -1.6929  -1.6779  -1.6591
    -1.6525  -1.6243  -1.5908  -1.5661  -1.5578  -1.5520  -1.5269  -1.5007
    -1.4518  -1.4392  -1.4313  -1.3859  -1.3772  -1.3597  -1.3348  -1.3126
    -1.2972  -1.2724  -1.2221  -1.2046  -1.1468  -1.1201  -1.1151  -1.0919
    -1.0812  -1.0640  -1.0307  -1.0127  -0.9995  -0.9847  -0.9678  -0.8203
    -0.7351  -0.7102  -0.6636  -0.6142  -0.5947  -0.5675  -0.5598  -0.5449
    -0.5170  -0.4779  -0.3915  -0.3822  -0.3615  -0.2487  -0.2423  -0.1976
    -0.1901  -0.1664  -0.1514  -0.1050  -0.0915  -0.0850  -0.0146   0.0079
     0.0098   0.0387   0.0416   0.1799   0.2295   0.2387   0.2633   0.2680
     0.3151   0.3235   0.3369   0.4002   0.4207   0.4277   0.4572   0.4764
     0.4902   0.5244   0.5476   0.5601   0.6382   0.6671   0.7121   0.7194
     0.7571   0.7896   0.8041   0.8283   0.8353   0.8603   0.9261   0.9415
     0.9536   0.9787   1.0057   1.0178   1.0363   1.0631   1.0661   1.0716
     1.0755   1.0933   1.1304   1.1487   1.2674   1.3007   1.3036   1.3220
     1.3339   1.3522   1.3841   1.3877   1.4112   1.4432   1.4607   1.5325
     1.5384   1.5590   1.7116   1.7287   1.7313   1.7728   1.9732   2.2048
     2.4380   2.9148   2.9292   3.0358   3.3602   3.9983   4.3656   4.6115
     5.0380   5.0462   5.2159   5.3402   5.5948   5.8882   6.0178   6.0453
     6.3054   6.4038   6.4220   6.4733

          k = 0.2000 0.1155 0.0000 ( 93490 PWs)   bands (ev):

   -19.8664 -17.6447  -9.8194  -7.3318  -6.2881  -6.0710  -5.6192  -5.4829
    -5.1653  -5.1489  -4.9492  -4.9120  -4.8581  -4.8201  -4.8059  -4.7508
    -4.6056  -4.5860  -4.4374  -4.4317  -4.4203  -4.3977  -4.1323  -4.0063
    -4.0025  -3.9791  -3.9757  -3.9132  -3.9034  -3.8487  -3.8411  -3.8322
    -3.8180  -3.7646  -3.7278  -3.7194  -3.6116  -3.6051  -3.5924  -3.5648
    -3.5568  -3.3967  -3.3794  -3.3720  -3.3559  -3.3306  -3.1015  -3.0906
    -3.0786  -3.0354  -3.0125  -2.9905  -2.9700  -2.8239  -2.7894  -2.7435
    -2.7131  -2.6825  -2.6668  -2.6433  -2.5004  -2.4326  -2.3525  -2.3299
    -2.2845  -2.2407  -2.2009  -2.1823  -2.1567  -2.1314  -2.1098  -2.1044
    -2.0893  -2.0387  -1.9861  -1.9661  -1.9541  -1.9357  -1.9005  -1.8633
    -1.8462  -1.8185  -1.7888  -1.7756  -1.7486  -1.6930  -1.6797  -1.6677
    -1.6542  -1.6191  -1.5833  -1.5671  -1.5564  -1.5456  -1.5213  -1.4824
    -1.4746  -1.4321  -1.4225  -1.3871  -1.3785  -1.3566  -1.3244  -1.3184
    -1.2811  -1.2762  -1.2359  -1.2145  -1.1440  -1.1165  -1.1104  -1.0895
    -1.0802  -1.0652  -1.0250  -1.0049  -0.9933  -0.9886  -0.9599  -0.8927
    -0.7557  -0.6864  -0.6525  -0.6226  -0.6008  -0.5699  -0.5572  -0.5467
    -0.5242  -0.4861  -0.3857  -0.3764  -0.3086  -0.2605  -0.2303  -0.2104
    -0.1829  -0.1635  -0.1534  -0.1133  -0.0870  -0.0548  -0.0165  -0.0052
     0.0214   0.0349   0.0489   0.1531   0.2238   0.2449   0.2615   0.2718
     0.2872   0.3231   0.3586   0.3986   0.4134   0.4339   0.4638   0.4887
     0.5135   0.5244   0.5449   0.5907   0.6321   0.6488   0.6683   0.7445
     0.7697   0.7900   0.8038   0.8262   0.8356   0.8635   0.8905   0.9314
     0.9529   0.9656   1.0074   1.0189   1.0431   1.0544   1.0660   1.0713
     1.0745   1.1123   1.1282   1.1608   1.2671   1.2895   1.3147   1.3233
     1.3328   1.3478   1.3791   1.3894   1.4078   1.4315   1.4556   1.5289
     1.5462   1.5587   1.7149   1.7223   1.7383   1.7758   1.9868   2.1967
     2.4282   2.9173   2.9284   3.0346   3.3663   4.0193   4.3553   4.5981
     5.0387   5.0451   5.2010   5.3383   5.6128   5.8944   6.0201   6.0493
     6.3592   6.4070   6.4225   6.4741

          k = 0.2000 0.3464 0.0000 ( 93506 PWs)   bands (ev):

   -19.8664 -17.6447  -9.8195  -7.0468  -6.2876  -5.8819  -5.8227  -5.7811
    -5.4539  -4.7924  -4.7393  -4.7353  -4.7171  -4.6906  -4.6742  -4.6525
    -4.6511  -4.6199  -4.5483  -4.5381  -4.1729  -4.1626  -4.1507  -4.1415
    -4.0876  -4.0618  -3.9267  -3.9054  -3.9011  -3.8916  -3.8841  -3.8105
    -3.7652  -3.7474  -3.7340  -3.7226  -3.6662  -3.6309  -3.6258  -3.5853
    -3.5738  -3.5016  -3.2540  -3.1549  -3.1482  -3.1359  -3.1223  -3.1020
    -3.0937  -3.0789  -3.0255  -3.0144  -2.9162  -2.8571  -2.8496  -2.7688
    -2.7452  -2.6937  -2.6781  -2.6699  -2.6007  -2.5873  -2.5385  -2.4308
    -2.3995  -2.3882  -2.3381  -2.2819  -2.2699  -2.2602  -2.2470  -2.2026
    -2.1896  -2.0929  -2.0453  -2.0191  -2.0077  -1.9728  -1.9469  -1.9237
    -1.9035  -1.8800  -1.8704  -1.8240  -1.7441  -1.7296  -1.7151  -1.7076
    -1.6927  -1.6897  -1.6414  -1.6387  -1.5986  -1.5806  -1.5506  -1.5346
    -1.4737  -1.4668  -1.4510  -1.4007  -1.3792  -1.3634  -1.3378  -1.3262
    -1.3225  -1.2978  -1.2731  -1.2501  -1.2437  -1.2428  -1.1994  -1.1878
    -1.1622  -1.1045  -1.0668  -1.0387  -1.0148  -0.9922  -0.9457  -0.9364
    -0.8519  -0.7672  -0.7472  -0.6934  -0.6010  -0.5904  -0.5563  -0.5448
    -0.5374  -0.5242  -0.4990  -0.4725  -0.4624  -0.4350  -0.3819  -0.3591
    -0.3241  -0.2523  -0.1707  -0.1513  -0.1334  -0.1022  -0.0893  -0.0702
    -0.0359   0.0178   0.0732   0.0953   0.1314   0.1512   0.1824   0.2409
     0.2950   0.2981   0.3263   0.3498   0.3733   0.3904   0.4020   0.4201
     0.4257   0.4372   0.4525   0.5085   0.5770   0.6331   0.6755   0.7423
     0.7645   0.8309   0.8623   0.9478   0.9646   0.9720   1.0091   1.0742
     1.0852   1.0901   1.1136   1.1298   1.1541   1.1621   1.1854   1.2095
     1.2175   1.2394   1.2746   1.3058   1.3433   1.3573   1.3728   1.3927
     1.4284   1.4919   1.5740   1.6164   1.6290   1.6895   1.7076   1.7127
     1.8401   1.8556   1.9948   2.3718   2.3893   2.5268   2.9153   2.9255
     2.9692   3.0988   3.6533   3.6642   3.8351   3.8693   3.9093   4.2045
     4.5639   5.0281   5.1059   5.2280   5.2792   5.7551   5.8354   5.8665
     5.8844   5.8970   6.0707   6.2245

          k = 0.2000-0.5774 0.0000 ( 93512 PWs)   bands (ev):

   -19.8664 -17.6447  -9.8195  -6.5167  -6.5118  -6.2874  -5.9181  -5.6036
    -5.2650  -5.1560  -4.7676  -4.7389  -4.7112  -4.5928  -4.5630  -4.4560
    -4.4482  -4.3524  -4.3412  -4.2335  -4.2278  -4.2191  -4.1911  -4.1718
    -4.1609  -4.1541  -4.0317  -4.0142  -4.0038  -3.9706  -3.9669  -3.8855
    -3.7986  -3.7631  -3.7086  -3.6198  -3.6043  -3.5982  -3.5904  -3.5656
    -3.4788  -3.4669  -3.3693  -3.3552  -3.1872  -3.1775  -3.1417  -3.0710
    -3.0459  -2.9828  -2.9676  -2.8596  -2.8277  -2.7931  -2.7815  -2.7540
    -2.7144  -2.6943  -2.6707  -2.6208  -2.5733  -2.5585  -2.5366  -2.5222
    -2.5180  -2.5104  -2.4619  -2.4325  -2.4025  -2.3755  -2.3019  -2.2551
    -2.2394  -2.1453  -2.1204  -2.0871  -2.0841  -2.0406  -2.0263  -1.9942
    -1.9814  -1.9270  -1.8936  -1.8838  -1.8500  -1.8299  -1.8114  -1.7889
    -1.7430  -1.6990  -1.6788  -1.6530  -1.6505  -1.5629  -1.5189  -1.5107
    -1.4859  -1.4579  -1.4470  -1.4100  -1.4004  -1.3874  -1.3593  -1.3454
    -1.3237  -1.3041  -1.2957  -1.2654  -1.2475  -1.2410  -1.2367  -1.2221
    -1.1976  -1.1660  -1.1352  -1.1241  -1.0528  -0.9421  -0.8636  -0.8498
    -0.8262  -0.7972  -0.7158  -0.7075  -0.6866  -0.6412  -0.6189  -0.5949
    -0.5885  -0.5581  -0.5478  -0.4926  -0.4624  -0.4545  -0.4209  -0.3843
    -0.3394  -0.3099  -0.2641  -0.2042  -0.1535  -0.1081  -0.0756  -0.0388
    -0.0279   0.0184   0.0468   0.0744   0.0928   0.1038   0.1307   0.1611
     0.1713   0.2258   0.2586   0.2979   0.3238   0.3364   0.3569   0.3733
     0.3885   0.4486   0.5141   0.5750   0.6302   0.6955   0.7208   0.7492
     0.7834   0.8004   0.9044   0.9211   0.9468   0.9698   1.0498   1.0843
     1.0981   1.1373   1.1416   1.1637   1.1748   1.2107   1.2367   1.2912
     1.3035   1.3179   1.3439   1.3551   1.3674   1.3798   1.4289   1.5322
     1.5434   1.5719   1.5740   1.5834   1.6370   1.6753   1.7604   1.8951
     2.1088   2.7206   2.7247   2.9409   3.0052   3.1058   3.1157   3.1548
     3.2679   3.7069   3.7368   3.7557   4.2005   4.2396   4.3169   4.3420
     4.3510   4.5527   4.6434   4.7376   4.9293   5.1335   5.1952   5.2925
     5.7846   5.8248   5.8385   6.1543

          k = 0.2000-0.3464 0.0000 ( 93506 PWs)   bands (ev):

   -19.8664 -17.6447  -9.8196  -7.0469  -6.2878  -5.8823  -5.8217  -5.7808
    -5.4548  -4.7979  -4.7368  -4.7340  -4.7181  -4.6822  -4.6706  -4.6597
    -4.6515  -4.6264  -4.5485  -4.5374  -4.1728  -4.1602  -4.1519  -4.1460
    -4.0871  -4.0646  -3.9291  -3.9107  -3.8999  -3.8912  -3.8863  -3.8037
    -3.7581  -3.7465  -3.7316  -3.7256  -3.6639  -3.6341  -3.6234  -3.5848
    -3.5694  -3.5017  -3.2526  -3.1743  -3.1439  -3.1354  -3.1237  -3.0963
    -3.0913  -3.0875  -3.0269  -3.0087  -2.8887  -2.8549  -2.8523  -2.7795
    -2.7427  -2.6828  -2.6797  -2.6753  -2.6203  -2.5833  -2.5147  -2.4380
    -2.4003  -2.3636  -2.3317  -2.2905  -2.2736  -2.2595  -2.2416  -2.2029
    -2.1893  -2.0939  -2.0474  -2.0155  -2.0079  -1.9751  -1.9455  -1.9317
    -1.8978  -1.8801  -1.8642  -1.8274  -1.7460  -1.7293  -1.7170  -1.6984
    -1.6929  -1.6886  -1.6532  -1.6380  -1.6100  -1.5939  -1.5539  -1.5306
    -1.4859  -1.4692  -1.4460  -1.4263  -1.3867  -1.3661  -1.3469  -1.3304
    -1.3080  -1.2914  -1.2767  -1.2626  -1.2442  -1.2381  -1.2084  -1.1836
    -1.1661  -1.0895  -1.0657  -1.0491  -1.0150  -0.9654  -0.9423  -0.9085
    -0.8542  -0.7646  -0.7336  -0.6987  -0.6059  -0.5961  -0.5690  -0.5431
    -0.5254  -0.5210  -0.5011  -0.4657  -0.4534  -0.4350  -0.3959  -0.3718
    -0.3464  -0.2373  -0.1850  -0.1556  -0.1381  -0.1175  -0.0937  -0.0555
    -0.0313   0.0507   0.0746   0.0931   0.1235   0.1524   0.2022   0.2242
     0.2792   0.2967   0.3215   0.3632   0.3772   0.3930   0.3998   0.4110
     0.4252   0.4304   0.4539   0.4942   0.5641   0.6346   0.6757   0.7329
     0.7808   0.8463   0.8586   0.9506   0.9606   0.9852   1.0154   1.0767
     1.0846   1.0984   1.1148   1.1343   1.1505   1.1633   1.1811   1.1938
     1.2238   1.2410   1.2660   1.3024   1.3396   1.3576   1.3753   1.3895
     1.4285   1.4856   1.5808   1.6237   1.6354   1.6911   1.7094   1.7119
     1.8495   1.8540   1.9969   2.3755   2.3858   2.5130   2.9122   2.9306
     2.9732   3.1060   3.6479   3.6582   3.8378   3.8766   3.9068   4.1985
     4.5612   5.0253   5.1112   5.2495   5.2807   5.7638   5.7961   5.8632
     5.8842   5.9074   6.0810   6.1917

          k = 0.4000-0.2309 0.0000 ( 93540 PWs)   bands (ev):

   -19.8664 -17.6447  -9.8197  -6.9104  -6.3005  -6.2673  -5.7313  -5.4711
    -5.1983  -5.1813  -5.0335  -4.8370  -4.7580  -4.6754  -4.5613  -4.5238
    -4.4750  -4.4700  -4.3094  -4.2857  -4.2581  -4.2459  -4.2444  -4.1389
    -4.0913  -4.0906  -4.0387  -4.0374  -4.0002  -3.9650  -3.9013  -3.8990
    -3.8879  -3.6377  -3.6352  -3.6270  -3.6255  -3.6086  -3.6015  -3.3840
    -3.3804  -3.3477  -3.3446  -3.3378  -3.3249  -3.1836  -3.0661  -3.0497
    -3.0320  -3.0297  -2.9923  -2.9628  -2.9073  -2.9007  -2.8900  -2.8480
    -2.8183  -2.7174  -2.6918  -2.6568  -2.6484  -2.5708  -2.5284  -2.4953
    -2.4750  -2.4549  -2.3748  -2.3091  -2.2589  -2.2284  -2.2229  -2.1967
    -2.1496  -2.1299  -2.1074  -2.0786  -2.0043  -1.9910  -1.9743  -1.9327
    -1.8688  -1.8463  -1.8432  -1.8332  -1.8113  -1.7750  -1.7531  -1.7447
    -1.7390  -1.7251  -1.7225  -1.7058  -1.6767  -1.6292  -1.5974  -1.5853
    -1.5545  -1.5498  -1.5344  -1.4831  -1.4267  -1.4048  -1.3841  -1.3546
    -1.3048  -1.2988  -1.2686  -1.2595  -1.2405  -1.1676  -1.1190  -1.0963
    -1.0625  -1.0172  -0.9977  -0.9532  -0.8976  -0.8441  -0.7988  -0.7879
    -0.7510  -0.7120  -0.6767  -0.6598  -0.6278  -0.6186  -0.6035  -0.5554
    -0.5448  -0.5374  -0.5181  -0.5070  -0.4948  -0.4737  -0.4481  -0.4256
    -0.3868  -0.3192  -0.3062  -0.2796  -0.2678  -0.2102  -0.1136  -0.1044
    -0.0789  -0.0016   0.0299   0.1150   0.1362   0.1662   0.2172   0.2288
     0.2424   0.2868   0.2912   0.3309   0.3583   0.3930   0.4240   0.4259
     0.4869   0.5392   0.5500   0.5534   0.5868   0.6049   0.6891   0.7058
     0.7863   0.8212   0.8354   0.8455   0.8673   0.9444   0.9552   0.9885
     1.0060   1.0762   1.0782   1.0971   1.1348   1.1443   1.1744   1.1976
     1.2429   1.2929   1.3191   1.3220   1.3427   1.3456   1.3510   1.3694
     1.5157   1.5305   1.5749   1.5821   1.5911   1.7402   1.7946   1.8027
     2.2073   2.2518   2.3296   2.6011   2.6220   2.7250   3.0202   3.0217
     3.3221   3.3640   3.8218   3.8342   3.8879   4.0321   4.1320   4.1655
     4.2562   4.4846   4.5043   4.6163   5.1550   5.2431   5.6858   5.7273
     6.1023   6.1803   6.2988   6.6815

          k = 0.4000-0.0000 0.0000 ( 93506 PWs)   bands (ev):

   -19.8664 -17.6447  -9.8196  -7.0471  -6.2887  -5.8821  -5.8232  -5.7784
    -5.4550  -4.7863  -4.7407  -4.7353  -4.7099  -4.6910  -4.6741  -4.6570
    -4.6516  -4.6264  -4.5508  -4.5412  -4.1743  -4.1604  -4.1521  -4.1468
    -4.0857  -4.0636  -3.9287  -3.9094  -3.9014  -3.8910  -3.8878  -3.8025
    -3.7576  -3.7444  -3.7316  -3.7267  -3.6639  -3.6334  -3.6261  -3.5847
    -3.5678  -3.5068  -3.2463  -3.1660  -3.1434  -3.1365  -3.1267  -3.1068
    -3.0930  -3.0881  -3.0289  -3.0094  -2.8778  -2.8538  -2.8499  -2.7753
    -2.7519  -2.6917  -2.6777  -2.6686  -2.6118  -2.5896  -2.5222  -2.4185
    -2.4127  -2.3793  -2.2990  -2.2939  -2.2780  -2.2605  -2.2262  -2.1942
    -2.1889  -2.0685  -2.0399  -2.0200  -2.0120  -1.9813  -1.9611  -1.9451
    -1.9143  -1.8915  -1.8598  -1.8348  -1.7565  -1.7283  -1.7178  -1.6938
    -1.6901  -1.6877  -1.6572  -1.6397  -1.6174  -1.5668  -1.5532  -1.5322
    -1.5010  -1.4661  -1.4445  -1.4335  -1.3753  -1.3578  -1.3519  -1.3267
    -1.3073  -1.2953  -1.2808  -1.2524  -1.2445  -1.2365  -1.2185  -1.1753
    -1.1586  -1.0910  -1.0766  -1.0447  -1.0170  -0.9689  -0.9441  -0.9130
    -0.8491  -0.7604  -0.7339  -0.7108  -0.6192  -0.5898  -0.5719  -0.5490
    -0.5270  -0.5163  -0.4959  -0.4675  -0.4572  -0.4320  -0.3955  -0.3617
    -0.3324  -0.2432  -0.1863  -0.1555  -0.1402  -0.1159  -0.0931  -0.0534
    -0.0326   0.0461   0.0721   0.0868   0.1229   0.1533   0.2049   0.2237
     0.2793   0.2972   0.3242   0.3625   0.3765   0.3953   0.3999   0.4119
     0.4249   0.4299   0.4554   0.4992   0.5728   0.6310   0.6761   0.7313
     0.7797   0.8386   0.8568   0.9496   0.9611   0.9887   1.0141   1.0784
     1.0846   1.0990   1.1151   1.1355   1.1511   1.1629   1.1782   1.1925
     1.2242   1.2417   1.2644   1.3014   1.3399   1.3577   1.3755   1.3889
     1.4272   1.4844   1.5848   1.6275   1.6376   1.6916   1.7099   1.7124
     1.8504   1.8535   1.9974   2.3735   2.3845   2.5131   2.9130   2.9321
     2.9745   3.1069   3.6448   3.6615   3.8380   3.8763   3.9070   4.1951
     4.5611   5.0256   5.1097   5.2539   5.2800   5.7610   5.7895   5.8624
     5.8904   5.9126   6.0870   6.1765

          k = 0.4000 0.2309 0.0000 ( 93540 PWs)   bands (ev):

   -19.8664 -17.6447  -9.8195  -6.9102  -6.2986  -6.2686  -5.7351  -5.4689
    -5.1987  -5.1830  -5.0277  -4.8306  -4.7621  -4.6780  -4.5591  -4.5230
    -4.4738  -4.4690  -4.3091  -4.2868  -4.2610  -4.2495  -4.2388  -4.1343
    -4.0925  -4.0864  -4.0434  -4.0360  -3.9944  -3.9621  -3.9027  -3.8999
    -3.8890  -3.6421  -3.6353  -3.6296  -3.6238  -3.6139  -3.6025  -3.3879
    -3.3814  -3.3531  -3.3431  -3.3347  -3.3193  -3.1731  -3.0691  -3.0532
    -3.0409  -3.0239  -2.9965  -2.9762  -2.9132  -2.8983  -2.8862  -2.8500
    -2.8327  -2.7200  -2.6894  -2.6625  -2.6399  -2.5672  -2.5193  -2.5145
    -2.4738  -2.4588  -2.4099  -2.3041  -2.2507  -2.2325  -2.2192  -2.1973
    -2.1470  -2.1293  -2.0972  -2.0584  -2.0001  -1.9946  -1.9767  -1.9378
    -1.8758  -1.8552  -1.8464  -1.8354  -1.8110  -1.7718  -1.7573  -1.7452
    -1.7342  -1.7289  -1.7193  -1.6976  -1.6772  -1.6338  -1.5828  -1.5721
    -1.5572  -1.5460  -1.5228  -1.5094  -1.4185  -1.4055  -1.3643  -1.3194
    -1.3046  -1.2889  -1.2702  -1.2545  -1.2260  -1.1416  -1.1161  -1.0968
    -1.0724  -1.0325  -0.9967  -0.9642  -0.9330  -0.8523  -0.8322  -0.7691
    -0.7447  -0.7073  -0.6742  -0.6688  -0.6445  -0.6300  -0.6158  -0.5957
    -0.5523  -0.5358  -0.5153  -0.5089  -0.4989  -0.4650  -0.4337  -0.4185
    -0.3635  -0.3204  -0.2989  -0.2796  -0.2261  -0.1983  -0.1449  -0.0996
    -0.0790  -0.0004   0.0303   0.1001   0.1655   0.1794   0.2184   0.2340
     0.2510   0.2790   0.3039   0.3384   0.3639   0.4029   0.4174   0.4452
     0.5071   0.5240   0.5472   0.5685   0.5862   0.5980   0.6637   0.7222
     0.7842   0.8187   0.8311   0.8452   0.8668   0.8909   0.9554   0.9809
     0.9864   1.0721   1.0773   1.0888   1.1435   1.1595   1.1833   1.2203
     1.2514   1.2977   1.3087   1.3206   1.3363   1.3446   1.3514   1.3617
     1.5185   1.5277   1.5622   1.5751   1.5835   1.7418   1.7944   1.8073
     2.2010   2.2538   2.3358   2.6078   2.6201   2.7199   3.0103   3.0285
     3.3333   3.3648   3.8229   3.8323   3.8828   4.0485   4.1218   4.1682
     4.2489   4.4814   4.4990   4.6126   5.1494   5.2704   5.6733   5.7469
     6.0792   6.2058   6.2945   6.7271

          k = 0.4000-0.6928 0.0000 ( 93512 PWs)   bands (ev):

   -19.8664 -17.6447  -9.8195  -6.5167  -6.5134  -6.2864  -5.9186  -5.6033
    -5.2596  -5.1579  -4.7805  -4.7342  -4.7024  -4.5985  -4.5617  -4.4545
    -4.4480  -4.3498  -4.3409  -4.2362  -4.2295  -4.2199  -4.1890  -4.1713
    -4.1640  -4.1558  -4.0322  -4.0136  -4.0045  -3.9717  -3.9659  -3.8862
    -3.7997  -3.7616  -3.7064  -3.6214  -3.6043  -3.5975  -3.5888  -3.5633
    -3.4782  -3.4664  -3.3669  -3.3556  -3.1909  -3.1773  -3.1524  -3.0697
    -3.0368  -2.9819  -2.9696  -2.8617  -2.8287  -2.7931  -2.7796  -2.7487
    -2.7076  -2.6905  -2.6658  -2.6362  -2.5812  -2.5509  -2.5408  -2.5267
    -2.5187  -2.5112  -2.4601  -2.4469  -2.4325  -2.3060  -2.2743  -2.2521
    -2.2186  -2.1557  -2.1413  -2.0915  -2.0753  -2.0484  -2.0249  -2.0013
    -1.9786  -1.9372  -1.9129  -1.8923  -1.8644  -1.8331  -1.8100  -1.7681
    -1.7372  -1.7111  -1.6775  -1.6575  -1.6524  -1.5696  -1.5232  -1.4942
    -1.4714  -1.4580  -1.4477  -1.4141  -1.3967  -1.3810  -1.3664  -1.3432
    -1.3346  -1.3096  -1.2973  -1.2615  -1.2481  -1.2406  -1.2373  -1.2254
    -1.1996  -1.1768  -1.1371  -1.1199  -1.0275  -0.9608  -0.8617  -0.8349
    -0.8238  -0.7890  -0.7164  -0.7040  -0.6863  -0.6616  -0.6092  -0.5967
    -0.5778  -0.5742  -0.5425  -0.5143  -0.4661  -0.4431  -0.4041  -0.3934
    -0.3403  -0.3071  -0.2773  -0.1887  -0.1509  -0.1167  -0.0748  -0.0377
    -0.0265   0.0119   0.0451   0.0724   0.0947   0.1003   0.1257   0.1618
     0.1771   0.2255   0.2602   0.2993   0.3236   0.3366   0.3582   0.3776
     0.3847   0.4545   0.5098   0.5801   0.6259   0.6971   0.7255   0.7425
     0.7855   0.8006   0.9022   0.9221   0.9458   0.9744   1.0487   1.0825
     1.0981   1.1368   1.1416   1.1626   1.1746   1.2095   1.2357   1.2917
     1.3039   1.3172   1.3425   1.3561   1.3668   1.3771   1.4290   1.5328
     1.5433   1.5736   1.5753   1.5867   1.6380   1.6786   1.7607   1.8958
     2.1082   2.7203   2.7248   2.9441   3.0051   3.1054   3.1156   3.1502
     3.2659   3.7090   3.7373   3.7553   4.2018   4.2384   4.3180   4.3421
     4.3500   4.5627   4.6452   4.7426   4.9215   5.1282   5.1940   5.2912
     5.7799   5.8201   5.8385   6.1652

          k = 0.4000-0.4619 0.0000 ( 93512 PWs)   bands (ev):

   -19.8664 -17.6447  -9.8196  -6.5177  -6.5131  -6.2861  -5.9186  -5.5994
    -5.2602  -5.1645  -4.7863  -4.7328  -4.6927  -4.5965  -4.5637  -4.4554
    -4.4509  -4.3495  -4.3413  -4.2405  -4.2299  -4.2223  -4.1879  -4.1755
    -4.1642  -4.1563  -4.0321  -4.0175  -4.0014  -3.9737  -3.9594  -3.8908
    -3.7994  -3.7576  -3.7034  -3.6191  -3.6045  -3.5959  -3.5877  -3.5591
    -3.4804  -3.4624  -3.3678  -3.3641  -3.1897  -3.1720  -3.1623  -3.0678
    -3.0246  -2.9826  -2.9611  -2.8629  -2.8305  -2.7917  -2.7706  -2.7593
    -2.7086  -2.6825  -2.6670  -2.6287  -2.5812  -2.5530  -2.5417  -2.5333
    -2.5160  -2.5107  -2.4638  -2.4444  -2.3949  -2.3035  -2.2845  -2.2553
    -2.2446  -2.1513  -2.1449  -2.0925  -2.0754  -2.0505  -2.0325  -2.0020
    -1.9823  -1.9200  -1.9054  -1.8951  -1.8612  -1.8350  -1.8125  -1.7638
    -1.7416  -1.7018  -1.6762  -1.6539  -1.6472  -1.5706  -1.5470  -1.4956
    -1.4724  -1.4510  -1.4358  -1.4237  -1.4018  -1.3948  -1.3591  -1.3546
    -1.3307  -1.3166  -1.3065  -1.2760  -1.2555  -1.2425  -1.2356  -1.2220
    -1.1985  -1.1786  -1.1668  -1.1302  -1.0017  -0.9339  -0.8876  -0.8345
    -0.8185  -0.7504  -0.7204  -0.7052  -0.6811  -0.6289  -0.6245  -0.5968
    -0.5838  -0.5663  -0.5428  -0.4909  -0.4607  -0.4443  -0.3990  -0.3894
    -0.3392  -0.3195  -0.2890  -0.2238  -0.1411  -0.1232  -0.0746  -0.0493
    -0.0193   0.0352   0.0505   0.0684   0.0858   0.0966   0.1213   0.1391
     0.1636   0.2297   0.2590   0.3038   0.3261   0.3284   0.3437   0.3665
     0.3775   0.4504   0.5189   0.5974   0.6184   0.6970   0.7246   0.7675
     0.7985   0.8251   0.8806   0.9226   0.9330   1.0009   1.0386   1.0762
     1.1103   1.1237   1.1403   1.1583   1.1908   1.2109   1.2276   1.2917
     1.3008   1.3174   1.3289   1.3579   1.3668   1.3791   1.4280   1.5292
     1.5469   1.5795   1.5812   1.5898   1.6344   1.6833   1.7622   1.8978
     2.1136   2.7206   2.7242   2.9376   2.9977   3.1039   3.1221   3.1480
     3.2623   3.7037   3.7399   3.7734   4.1990   4.2330   4.3160   4.3394
     4.3540   4.5738   4.6588   4.7403   4.8850   5.1517   5.1864   5.2828
     5.8009   5.8149   5.8470   6.1828

     the Fermi energy is     1.3476 ev

!    total energy              =  -27861.85871601 Ry

     total all-electron energy =  -1327024.082011 Ry
     estimated scf accuracy    <       0.00000035 Ry
     smearing contrib. (-TS)   =       0.00036459 Ry
     internal energy E=F+TS    =  -27861.85908060 Ry

     The total energy is F=E-TS. E is the sum of the following terms:
     one-electron contribution =  -29734.53059387 Ry
     hartree contribution      =   15167.27997871 Ry
     xc contribution           =    -912.53876493 Ry
     ewald contribution        =   13118.71603602 Ry
     one-center paw contrib.   =  -25500.78573653 Ry

     convergence has been achieved in  22 iterations

     negative rho (up, down):  1.408E-02 0.000E+00

     Forces acting on atoms (cartesian axes, Ry/au):

     atom    1 type  1   force =    -0.00077748   -0.00096561   -0.00321181
     atom    2 type  1   force =     0.00017149   -0.00015293   -0.00348274
     atom    3 type  1   force =     0.00072722   -0.00078366   -0.00334687
     atom    4 type  1   force =     0.00039681    0.00113102   -0.00319245
     atom    5 type  1   force =    -0.00054311    0.00063896   -0.00315709
     atom    6 type  1   force =     0.00015988   -0.00008393   -0.00292683
     atom    7 type  1   force =    -0.00053183    0.00017717   -0.00845774
     atom    8 type  1   force =    -0.00081917    0.00014203   -0.00311856
     atom    9 type  1   force =     0.00091817   -0.00026826   -0.00349923
     atom   10 type  1   force =     0.00219051   -0.00112361    0.00928573
     atom   11 type  1   force =    -0.00190379   -0.00070742    0.00771674
     atom   12 type  1   force =     0.00048791    0.00035749    0.00149941
     atom   13 type  1   force =    -0.00018460   -0.00187403    0.00249142
     atom   14 type  1   force =     0.00061506   -0.00023321    0.00143549
     atom   15 type  1   force =     0.00003372   -0.00041089    0.00119893
     atom   16 type  1   force =     0.00161607    0.00137095    0.00284281
     atom   17 type  1   force =    -0.00016595    0.00225978    0.00778345
     atom   18 type  1   force =     0.00000815    0.00046784   -0.00034805
     atom   19 type  1   force =    -0.00016641    0.00016086   -0.00028966
     atom   20 type  1   force =    -0.00017267   -0.00015582    0.00009675
     atom   21 type  1   force =    -0.00035308    0.00016357   -0.00024065
     atom   22 type  1   force =    -0.00004512    0.00027801   -0.00017989
     atom   23 type  1   force =    -0.00042476    0.00032045   -0.00011882
     atom   24 type  1   force =    -0.00023972    0.00042766   -0.00022358
     atom   25 type  1   force =    -0.00024828   -0.00003581   -0.00021609
     atom   26 type  1   force =     0.00009536    0.00024810   -0.00000370
     atom   27 type  1   force =    -0.00015318    0.00006678   -0.00013118
     atom   28 type  1   force =    -0.00001395    0.00012625   -0.00011976
     atom   29 type  1   force =    -0.00022113    0.00009384   -0.00025287
     atom   30 type  1   force =     0.00014466    0.00028462    0.00054363
     atom   31 type  1   force =    -0.00011561    0.00001496    0.00013955
     atom   32 type  1   force =    -0.00039467    0.00007435    0.00025638
     atom   33 type  1   force =    -0.00021827    0.00009501    0.00059901
     atom   34 type  1   force =    -0.00022607    0.00016094    0.00060439
     atom   35 type  1   force =    -0.00022456    0.00036636    0.00014946
     atom   36 type  1   force =    -0.00016912   -0.00025032    0.00059521
     atom   37 type  2   force =     0.00015390    0.00004296    0.00042776
     atom   38 type  3   force =     0.00020393   -0.00371872   -0.00073519
     atom   39 type  4   force =     0.00065700   -0.00041130    0.00047421
     atom   40 type  4   force =     0.00021742   -0.00008157    0.00030282
     atom   41 type  2   force =     0.00004776   -0.00163399    0.00111241
     atom   42 type  4   force =    -0.00053253    0.00342114   -0.00230284

     Total force =     0.006360     Total SCF correction =     0.001561
     SCF correction compared to forces is large: reduce conv_thr to get better values

     negative rho (up, down):  1.408E-02 0.000E+00

     negative rho (up, down):  1.408E-02 0.000E+00

     negative rho (up, down):  1.408E-02 0.000E+00

     negative rho (up, down):  1.408E-02 0.000E+00

     negative rho (up, down):  1.408E-02 0.000E+00

     negative rho (up, down):  1.408E-02 0.000E+00

     negative rho (up, down):  1.408E-02 0.000E+00

     negative rho (up, down):  1.408E-02 0.000E+00

     negative rho (up, down):  1.408E-02 0.000E+00

     negative rho (up, down):  1.408E-02 0.000E+00

     negative rho (up, down):  1.408E-02 0.000E+00

     negative rho (up, down):  1.408E-02 0.000E+00

     negative rho (up, down):  1.408E-02 0.000E+00

     negative rho (up, down):  1.408E-02 0.000E+00

     negative rho (up, down):  1.408E-02 0.000E+00

     negative rho (up, down):  1.408E-02 0.000E+00

     negative rho (up, down):  1.408E-02 0.000E+00

     negative rho (up, down):  1.408E-02 0.000E+00

     negative rho (up, down):  1.408E-02 0.000E+00

     negative rho (up, down):  1.408E-02 0.000E+00

     negative rho (up, down):  1.408E-02 0.000E+00

     negative rho (up, down):  1.408E-02 0.000E+00

     negative rho (up, down):  1.408E-02 0.000E+00

     negative rho (up, down):  1.408E-02 0.000E+00

     negative rho (up, down):  1.408E-02 0.000E+00

     negative rho (up, down):  1.408E-02 0.000E+00

     negative rho (up, down):  1.408E-02 0.000E+00

     negative rho (up, down):  1.408E-02 0.000E+00

     negative rho (up, down):  1.408E-02 0.000E+00

     negative rho (up, down):  1.408E-02 0.000E+00

     negative rho (up, down):  1.408E-02 0.000E+00

     negative rho (up, down):  1.408E-02 0.000E+00

     negative rho (up, down):  1.408E-02 0.000E+00

     negative rho (up, down):  1.408E-02 0.000E+00
 BEEFens 2000 ensemble energies
             -0.611014943134627E+02
             -0.362980681820170E+01
             -0.159314112220000E+02
              0.432427733429267E+02
             -0.222661189858121E+02
             -0.206589442348260E+02
             -0.355453741512815E+02
             -0.871481048159025E+02
             -0.468146642487367E+02
             -0.475853603246048E+02
             -0.371670787928495E+02
              0.230843183229312E+01
              0.408154437447399E+01
              0.762518530280579E+01
              0.268493972653272E+01
              0.478162962768681E+02
             -0.210430363314878E+02
             -0.231446284239672E+02
              0.194111364122122E+02
             -0.113174043764179E+03
              0.540282044088647E+02
             -0.291289947258816E+02
             -0.338174439774085E+01
             -0.114922952488890E+02
             -0.885015059431828E+01
             -0.470350306647873E+01
              0.889030353491385E+02
             -0.188261212913515E+02
             -0.908516036296032E+01
             -0.522116599257775E+02
              0.820851360836355E+02
             -0.188152877576349E+02
             -0.377765953538316E+02
              0.250901971249908E+02
             -0.286515554897960E+01
              0.165436250590934E+02
             -0.486950592145718E+01
              0.108501664644725E+02
              0.290162917805889E+02
             -0.104006832689346E+03
              0.562259108703619E+02
              0.143234997922457E+02
             -0.176665733936881E+01
             -0.363905146046014E+02
              0.123940839090294E+02
             -0.147878359208035E+02
              0.401575722398704E+02
              0.367431316287556E+02
             -0.309866692748521E+02
             -0.277120171940946E+02
             -0.330200615374520E+02
             -0.354605624385532E+02
              0.137270519699996E+02
             -0.494561406752599E+02
              0.116621491124748E+02
              0.627403117870056E+02
              0.640159191417901E+02
              0.358249187648943E+02
              0.155538063181332E+02
              0.272541371733336E+02
              0.897751082593790E+02
              0.214160926166442E+02
             -0.552486867975606E+02
             -0.158021744837537E+02
             -0.237749687686778E+02
              0.634162056659632E+02
             -0.779000772547689E+02
             -0.675868517978425E+02
             -0.261342168791567E+02
             -0.655924639633554E+01
             -0.474003863885160E+02
              0.272615536576827E+02
              0.808883415804598E+01
              0.877422135326526E+01
             -0.399835288406584E+02
             -0.349287007831327E+02
             -0.545779848846532E+02
              0.392846203397589E+02
             -0.298178057929383E+02
              0.267102450249947E+02
             -0.719336386917724E+01
             -0.320120139087603E+02
             -0.580268618393115E+02
             -0.177678913427692E+02
             -0.914210134050848E+01
             -0.125994599461494E+02
              0.415038897310046E+02
              0.687703391407661E+02
             -0.388663634711666E+02
             -0.800383154141603E+02
             -0.221002605378351E+02
              0.112291462753850E+03
             -0.596268288857837E+02
              0.358279710550605E+02
             -0.964735739920695E+01
             -0.667677971497595E+02
              0.256387890104704E+02
              0.400695293605392E+02
             -0.199708704547790E+02
              0.402418230063276E+02
             -0.297813336003715E+02
             -0.481929839295902E+02
              0.872208878010121E+02
              0.457124996944337E+02
              0.338519791573137E+02
              0.147327622904679E+02
              0.207064792880548E+02
              0.862273244588553E+02
             -0.258635171116055E+02
              0.790518724002916E+01
             -0.143382345266306E+03
              0.182677489482759E+02
             -0.720915726664927E+02
              0.151888597843024E+02
              0.206129171998788E+02
             -0.335288331882206E+02
             -0.560863054196510E+02
              0.656217445609013E+01
             -0.306118185906452E+02
              0.310600116555024E+02
             -0.533159190434489E+02
              0.169030511519452E+01
             -0.359536334112088E+02
             -0.426491848902839E+01
             -0.104759498882098E+01
              0.182269397541586E+02
              0.141535486533974E+01
             -0.657140884642320E+01
              0.594687509928036E+02
              0.914606812470294E+02
              0.487405473674785E+02
              0.835652734281250E+02
             -0.116157140873660E+02
              0.143713828422121E+02
              0.544982621298785E+02
             -0.111193564696657E+02
             -0.741143300404154E+02
             -0.386773774382413E+02
             -0.525110519545426E+02
             -0.278765133575595E+02
              0.328991699836120E+02
             -0.117608636198303E+03
             -0.188152705514758E+02
              0.417042124834158E+02
             -0.388961779263223E+02
             -0.367532100084381E+02
              0.547813536974832E+02
              0.404024054486944E+02
             -0.356154937971536E+02
              0.139227024320745E+02
             -0.274904415719018E+02
              0.345730049265604E+02
              0.451260208969353E+01
              0.212216722482856E+02
             -0.890736190217192E+02
             -0.483661273224037E+02
             -0.100263058739104E+02
              0.321743021041247E+01
             -0.369670711039589E+02
              0.106758570258622E+03
             -0.232240292861851E+02
             -0.400784953601987E+02
              0.391681605196063E+02
             -0.497555530867452E+02
             -0.365615785984881E+02
              0.326886396163163E+02
              0.125161288775279E+02
              0.165417187272789E+02
              0.117300799157368E+02
             -0.133567209684734E+02
              0.226296905259302E+02
              0.594395479799852E+02
             -0.313800660769946E+02
              0.163801415033246E+02
              0.940741042951480E+02
              0.342857302691628E+02
             -0.734795128846019E+01
             -0.189736063688690E+02
              0.154419257815263E+03
             -0.165413763203076E+02
              0.365712337928691E+02
              0.196193064712077E+02
              0.363962540886690E+02
              0.898453015626571E+02
              0.546192952066622E+02
             -0.243886129325077E+01
              0.229226860538497E+02
              0.488097196061431E+02
              0.366219747825483E+02
             -0.529728844030343E+02
              0.942452783551337E+02
             -0.831673460785760E+02
             -0.199164907514202E+02
              0.586830552738647E+02
              0.681520861688799E+01
              0.791749323327667E+01
              0.343163649837932E+02
              0.300469161567112E+02
              0.356119015245992E+02
             -0.641958538149784E+02
              0.290070030322545E+01
             -0.299301364714283E+02
             -0.876539802923313E+01
             -0.145781460757337E+01
             -0.728659025717317E+01
             -0.418918733557479E+01
              0.865202638668074E+02
             -0.101580253017218E+02
             -0.278387229763609E+02
             -0.498041582289760E+01
              0.140760669556782E+02
             -0.568144142354202E+02
             -0.410411628015348E+02
             -0.384499779222500E+02
             -0.634428908354715E+02
             -0.170789459896828E+02
             -0.450312743486169E+02
              0.164831926493131E+02
             -0.239764941909013E+01
             -0.105326468570639E+02
             -0.940491271663751E+01
              0.812113420609148E+01
             -0.244232158684972E+02
              0.693781731664251E+02
             -0.813038391104513E+02
             -0.142052608008796E+02
             -0.175191289916607E+02
              0.183160484549899E+02
              0.215467200675035E+02
             -0.467003705382992E+02
             -0.202933951733795E+02
              0.443946999853990E+02
             -0.277724650208237E+02
              0.187847439339095E+02
              0.385448992196612E+02
             -0.322604495834332E+01
              0.114924676949403E+03
             -0.231276598379980E+02
             -0.343361846087668E+02
              0.581882595044232E+01
             -0.229896634329933E+02
              0.531267981050270E+02
             -0.340021997975279E+02
              0.107151980033699E+02
              0.644674019396296E+02
             -0.127423827235586E+02
              0.121046576528259E+03
              0.126762024285162E+03
             -0.654531091659996E+02
              0.594449717877417E+02
              0.167739530167502E+02
             -0.521538846055260E+02
              0.217537576133112E+02
              0.356468064750072E+02
              0.365603705158401E+02
              0.137631663743832E+01
              0.160496333785728E+02
              0.700775730025381E+02
             -0.248484470236032E+02
              0.182154577341539E+02
              0.744213237697841E+02
             -0.375197243805704E+02
             -0.130893888214226E+02
              0.512295380690924E+02
              0.299343988576323E+02
              0.785618851236660E+02
              0.224698122187094E+02
              0.631709492063845E+01
              0.282265865013104E+02
              0.386067459963168E+02
             -0.475007664736338E+02
              0.334645289374129E+01
              0.131054485411581E+02
              0.114342590271534E+02
              0.222053666948413E+02
             -0.578991493666515E+02
              0.368309431981504E+02
             -0.446864904530670E+02
             -0.349515846292857E+02
              0.179110205910564E+02
             -0.182346461270335E+02
              0.558740627829342E+02
             -0.257611020707042E+02
              0.268756503328095E+02
              0.370243362037305E+02
              0.834604903369310E+02
              0.578414396097942E+02
              0.465277506199130E+02
             -0.106354694306997E+02
             -0.395270929451516E+01
             -0.334308251156287E+02
              0.755988435047643E+02
              0.802705682271845E+02
              0.364498345284061E+02
             -0.193705840658486E+02
              0.515240855114495E+02
             -0.163311242476550E+02
              0.216389865125467E+02
              0.618974787762273E+02
              0.211733785626842E+01
             -0.105091268453794E+02
             -0.284616099405247E+02
             -0.515371944150247E+02
              0.951956063371558E+02
              0.442933356703239E+02
             -0.563118676439411E+02
             -0.975244046738800E+01
              0.251871982467435E+02
             -0.100615031527320E+02
              0.596476563928723E+02
              0.153131365905743E+02
              0.804614628240901E+02
              0.281472971162641E+02
             -0.265842239908110E+02
              0.250470054552719E+02
             -0.506120162814545E+01
             -0.325675673944247E+02
              0.134408851051426E+02
              0.206953595152606E+02
              0.938872434714825E+02
              0.802764194151237E+02
              0.554741984382784E+02
              0.735487575256764E+02
              0.805517458180347E+01
             -0.275511466771176E+02
              0.164017438257862E+02
             -0.370445123987833E+02
             -0.479918706479426E+02
             -0.567747076360289E+02
             -0.268695332830317E+02
             -0.110453042867480E+03
             -0.293643970973047E+02
             -0.843261485429431E+02
              0.211398407715406E+02
             -0.480298341860144E+02
              0.399905015682504E+02
             -0.947955608397907E+02
             -0.332081230325845E+02
              0.551801745026672E+02
              0.209136341265840E+02
             -0.836589661054151E+02
              0.635003236092020E+02
             -0.258655764214610E+02
              0.516247148077119E+02
             -0.244730198463558E+02
             -0.756857440219194E+02
              0.113157064240772E+02
             -0.615923489081263E+02
             -0.168990347664848E+02
             -0.148092513529975E+01
              0.421358006742380E+02
              0.127870998098732E+03
             -0.464852686682558E+02
             -0.365124080253398E+02
             -0.100158953954150E+01
             -0.131276658706833E+02
             -0.828088681685751E+02
             -0.600840177697374E+02
              0.520729763229559E+02
             -0.290660490088061E+02
              0.170327764425102E+02
             -0.492837256973800E+02
             -0.132920379880881E+02
             -0.440127386091723E+02
              0.568981242823732E+02
              0.152104364307609E+02
             -0.233178526999469E+02
             -0.127889428294946E+02
              0.674661760140010E+01
             -0.626973216522572E+01
              0.444569226023535E+02
             -0.253876962892371E+02
              0.281754508832137E+01
              0.341569612135102E+02
              0.172413645999352E+02
             -0.161143383383663E+02
              0.157342277294697E+03
              0.541817735108465E+02
              0.120839118813946E+01
              0.162101015253768E+02
             -0.619108301021846E+02
              0.317142807528476E+02
             -0.726942675221739E+02
             -0.254124474106623E+02
             -0.526569162135436E+02
             -0.221231869526808E+02
              0.573014087441084E+02
             -0.541027947677388E+02
              0.162322635110906E+02
             -0.409672428583031E+01
              0.389501817717490E+01
             -0.436294467885979E+02
             -0.481237367482089E+02
             -0.400838495731068E+01
             -0.427878987057796E+02
             -0.218867214377963E+02
             -0.441177864790498E+02
             -0.119890431878350E+02
             -0.361360101634272E+02
             -0.520097096266134E+02
              0.214608585484519E+02
             -0.210525296858220E+02
              0.189291839997791E+02
              0.983051659276565E+01
             -0.743170591646187E+02
             -0.551903746544267E+02
             -0.401141353696972E+02
              0.356900465647716E+02
              0.269421794398755E+01
             -0.631284871206086E+02
              0.589610508255422E+02
             -0.404024415804928E+02
              0.548514270277179E+02
             -0.291725231809472E+02
             -0.449500753896304E+02
              0.300339992270376E+02
             -0.662589499354654E+02
             -0.382503494693199E+02
              0.677201131183191E+02
              0.205279142841696E+02
             -0.362866786880361E+02
              0.493288244163440E+02
             -0.175284805643918E+02
             -0.325455469898399E+02
             -0.304056767501825E+02
             -0.504139423697379E+02
              0.251026658550197E+02
             -0.939199637707917E+02
             -0.845962108832453E+02
             -0.740388824439879E+01
             -0.308783821838612E+02
             -0.579674033080164E+02
              0.726938896942618E+02
              0.132460647712519E+03
             -0.363083829524995E+02
             -0.256113082634300E+01
             -0.641619216327050E+02
              0.654983983828960E+02
              0.172258616304744E+02
             -0.183081573554789E+02
             -0.412667681209291E+02
              0.149781220905210E+02
             -0.590476915880361E+02
             -0.198890646221871E+02
             -0.911059819839383E+02
              0.339456253468003E+02
              0.170023884583608E+02
              0.182246326827931E+01
             -0.709933708294875E+01
             -0.332265481979300E+02
             -0.764859807036339E+01
              0.126441024117956E+03
             -0.200139814394232E+02
             -0.440677621204082E+02
             -0.688605899293917E+02
              0.110161374451732E+02
             -0.344607289530310E+02
              0.596475891518222E+01
              0.263697854871154E+02
              0.102463755744240E+02
              0.280143472870916E+02
              0.120876875229197E+02
              0.633650600191477E+02
              0.318872151328071E+02
             -0.328893202031916E+02
              0.358735416112831E+02
              0.381996448315065E+02
              0.121772489050547E+02
              0.489995131092508E+02
             -0.226475822692334E+02
              0.770799991097841E+02
              0.173771439109731E+02
             -0.274421936344260E+02
             -0.728300906414619E+01
             -0.187586461353599E+02
              0.263293844465636E+02
             -0.236456641777651E+02
             -0.160782168512441E+00
             -0.859163621447408E+01
              0.815329925998866E+02
              0.504044236468865E+02
             -0.692086704647773E+02
             -0.479945115406184E+01
             -0.559288636492751E+02
             -0.160593768269147E+02
             -0.269928456626600E+02
              0.382371317774596E+01
              0.560615044714719E+00
             -0.259469252716068E+02
              0.823199790602271E+01
             -0.608189426297542E+01
             -0.129386506293786E+02
              0.865011043826796E+02
              0.183080987554928E+02
             -0.812495195524700E+02
             -0.461308617471134E+02
              0.951333040319251E+02
              0.279601063512814E+02
             -0.107372217688928E+02
              0.105328710016677E+03
             -0.196258389066952E+02
             -0.123683534556943E+02
             -0.544476522449372E+01
              0.108556493693332E+02
              0.274364237965411E+02
              0.782918626710224E+01
              0.307340089516337E+02
             -0.188885565927836E+02
             -0.306039948707150E+02
             -0.420578809512291E+02
             -0.480431578401104E+02
              0.467006511227755E+02
              0.127870229886999E+02
              0.390304154345172E+02
              0.134551638784293E+02
              0.861839395327549E+02
              0.157690342875404E+02
             -0.851386462457987E+02
             -0.336830566667722E+02
              0.134404736451734E+02
             -0.304811458762342E+02
              0.630899053369958E+02
             -0.898399499272250E+01
              0.150045926220654E+02
              0.500895465258306E+02
             -0.712684477137204E+02
              0.150788480054992E+03
              0.210088154434260E+02
              0.272932568954679E+02
              0.350170383495724E+02
              0.104435548497723E+02
             -0.158189184300943E+01
              0.360939967782388E+02
             -0.359615686689990E+02
              0.778995783536987E+02
              0.689894955320067E+02
             -0.408838253647741E+02
              0.150891208674764E+02
              0.675226304395144E+02
             -0.225518262682905E+02
              0.155414046274227E+02
              0.437978516270570E+02
              0.425349551318438E+02
             -0.790292492477857E+02
             -0.153501486164066E+02
             -0.358576003850430E+02
             -0.153392973646942E+01
             -0.770202147934087E+01
             -0.544358394179483E+01
             -0.181933740782708E+02
             -0.295906737374253E+02
              0.641652838497791E+01
              0.112406473925079E+02
              0.539488722404944E+02
             -0.393294062590279E+02
              0.377182087883261E+02
              0.441826536842824E+02
             -0.187795554384788E+02
              0.878176320041468E+02
             -0.702588245817912E+02
             -0.103912995622564E+03
             -0.662004997620524E+01
             -0.275369868467487E+01
              0.386886653536271E+01
              0.794842959124576E+02
             -0.107485868117530E+02
              0.419587372450700E+02
              0.447380600994504E+02
              0.387954594866975E+02
             -0.998591780359186E+01
              0.632060678027112E+02
             -0.134811565786240E+02
             -0.309940427303856E+02
             -0.482719670898074E+02
              0.592709083131705E+01
              0.372532773884005E+02
             -0.605432990325690E+01
              0.395681689523072E+02
             -0.174671908493769E+01
              0.659570238211521E+02
              0.188856127128156E+02
              0.100325418737818E+02
             -0.121985500707839E+02
              0.334504191093837E+02
              0.365367669029029E+02
              0.234016856870683E+02
             -0.527746536267728E+00
             -0.554291598944209E+02
              0.262795974693565E+02
              0.176588332198786E+02
              0.405300247408612E+02
              0.274519125581988E+02
              0.374880090380609E+02
             -0.609425247979036E+01
              0.253100964968007E+02
             -0.300315781821485E+02
             -0.199421824902129E+01
             -0.573106796974953E+02
             -0.310242554769785E+02
              0.381731028552580E+02
             -0.942008574410948E+02
              0.296466441073633E+02
              0.185103327822009E+02
              0.846025273975513E+02
             -0.302245693435101E+02
              0.331587807012134E+02
             -0.138516563883907E+02
             -0.467379189049933E+02
             -0.766641447240394E+02
             -0.532836965214565E+01
             -0.866353216970027E+02
              0.200708528516067E+02
             -0.249009855112789E+02
              0.307947428534833E+02
              0.238200811693895E+02
             -0.243013904830379E+02
             -0.267345696359226E+02
              0.393904650536471E+02
             -0.592223145321577E+02
             -0.117514202883997E+02
             -0.197415769765107E+02
              0.214388966063611E+02
             -0.893392286285047E+01
              0.365055574897065E+01
             -0.202068922487403E+02
              0.562594046400770E+02
             -0.443003470533098E+02
              0.796257101308379E+01
              0.589582208987645E+02
             -0.325780752179888E+02
              0.361416566666148E+01
             -0.883430581712082E+01
             -0.674444816200767E+02
             -0.485841703638103E+02
             -0.865816904369058E+01
              0.242661043336391E+02
              0.304480794246097E+02
              0.863874421397043E+01
             -0.419617870353397E+01
              0.153459083342146E+02
             -0.443102118653500E+02
              0.331564627228670E+01
             -0.534781763163830E+02
             -0.326507088885527E+02
              0.478140063720254E+02
             -0.297204228197247E+02
              0.627109908611620E+02
             -0.216190831218964E+02
              0.356346631151222E+02
              0.243571096958083E+02
             -0.648420422346194E+02
             -0.282545603135569E+02
              0.936696201997557E+01
             -0.374342499045449E+02
             -0.342458205608576E+02
             -0.835875566196648E+02
             -0.543429403257082E+02
             -0.514165990014654E+02
             -0.418691199343910E+02
             -0.965878468477484E+00
              0.100803634439497E+02
              0.106563307004524E+01
              0.154766037562267E+02
             -0.553428181660324E+02
              0.142806650138141E+02
              0.258215072454467E+02
             -0.671658441169528E+02
             -0.706345459582391E+02
             -0.433938106997480E+02
             -0.173806733805989E+02
              0.179927508770763E+02
              0.454225408491197E+01
             -0.429226627567130E+02
              0.368668515068117E+02
             -0.217532908162486E+02
              0.521109671274615E+02
             -0.893337237807721E+02
              0.601842242175554E+02
             -0.215410271278895E+01
             -0.371427396016591E+02
             -0.218341190448965E+02
              0.471759534566925E+01
              0.377861215937497E+02
             -0.761510300151422E+02
[...]
              0.285047819432650E+02
              0.142755490767054E+03
              0.244428436680585E+02
              0.123804330757640E+02
             -0.467862029366799E+02
             -0.642137756680470E+02
             -0.190042306225177E+02
              0.331677124421544E+02
             -0.432167795719920E+01
              0.191430936716666E+02
              0.338434531480966E+02
             -0.590920633196439E+02
              0.224346766450738E+02
              0.585214402862778E+02
              0.557099186053856E+02
             -0.424678627675775E+01
             -0.136265230103902E+01
             -0.999600687318895E+01
             -0.485746329530004E+02
             -0.679797152645916E+02
              0.791202218062409E+02
             -0.529258588256110E+01
             -0.591917415478326E+02
              0.172327548796162E+01
             -0.207091592721416E+02
              0.944593654932509E+02
             -0.217887868481081E+02
             -0.355945799279307E+02
              0.337418361361848E+02
             -0.146766229256231E+02
              0.392764629427845E+02
             -0.240809468123285E+01
              0.101761771318346E+03
              0.492932809728068E+02
             -0.510475130913691E+01
             -0.324477221259012E+02
              0.234186810835673E+02
             -0.532329639054691E+02
             -0.128442510614599E+02
              0.590003294416311E+02
             -0.289515014193664E+02
             -0.441464493901747E+02
             -0.224598520368148E+02
              0.522187745492931E+02
              0.125774329108019E+02
             -0.854676310708867E+02
              0.306295633251300E+02
              0.153080584517744E+02
              0.583335955676904E+01
             -0.516760587159185E+02
             -0.373441651428152E+01
              0.325494131375062E+02
              0.516408991349236E+02
              0.636767100901231E+02
              0.231049615978419E+02
              0.807922216471098E+00
             -0.501480926304019E+02
             -0.513003791814204E+02
             -0.752891649216800E+02
             -0.621540706122414E+01
              0.311229495132161E+02
             -0.382294090031405E+01
              0.550369101079054E+02
             -0.320190548245987E+02
              0.167604951419086E+02
             -0.103682887240937E+02
             -0.291461740434690E+02
              0.589620362767922E+02
              0.796446804680050E+01
              0.608356163994649E+02
              0.513311695732580E+01
              0.266666474534679E+02
             -0.193703849633538E+02
              0.590374570802582E+02
             -0.112276171256836E+02
             -0.139198348453503E+00
             -0.795421721410702E+02
             -0.129026159891853E+02
              0.723995008557831E+02
              0.677909747960700E+02
              0.253324569687446E+02
             -0.131311088951883E+02
              0.344069284259155E+01
             -0.174697841613151E+02
             -0.211204528296372E+01
              0.913696626818259E+02
              0.125308905366330E+01
             -0.192152971251916E+02
             -0.111505945290880E+03
             -0.556257696428241E+02
             -0.377509360860943E+02
             -0.663172408770731E+02
             -0.559523064390007E+02
             -0.687615085815656E+02
             -0.450223470093737E+02
             -0.413114608125474E+02
             -0.455027812445208E+02
              0.486652091894059E+02
             -0.295769784388571E+02
             -0.100224543497506E+03
              0.421885536398301E+02
             -0.262121649482467E+02
             -0.796271887941928E+02
              0.950693011757940E+02
             -0.221353502617347E+02
              0.229289555070712E+02
              0.457994521329182E+02
             -0.131407499994765E+01
              0.255881273925548E+02
              0.470694045109030E+01
              0.411070938562645E+00
             -0.151438919712378E+02
             -0.720676955221755E+02
              0.134034326463873E+02
             -0.130256444944083E+03
              0.628556251797199E+02
             -0.443454697121567E+02
             -0.163777345315114E+02
             -0.159189423006731E+02
              0.724543522670595E+01
             -0.228947071123152E+02
              0.299228955454774E+02
             -0.524278543966843E+02
              0.369929183258980E+02
              0.373633368837648E+02
              0.169477840655433E+02
              0.101154972195165E+02
              0.199251264150239E+02
              0.626718518539377E+01
              0.312543235288350E+02
             -0.806332361136043E+01
             -0.596566779909934E+02
              0.765028223157242E+01
             -0.154598768416428E+02
             -0.196237359374913E+01
              0.509596578296172E+02
             -0.832454043503474E+02
             -0.148609168657197E+01
              0.574569014671624E+00
              0.100093187645788E+02
              0.320661970621687E+02
             -0.124535610620180E+02
              0.841344809418348E+02
              0.490908913499459E+02
             -0.184449517310827E+02
             -0.964835637068637E+01
              0.108746448699245E+01
              0.774936732715269E+02
             -0.589731888032790E+02
             -0.106470034924484E+03
              0.311165754388109E+02
             -0.163623401016586E+02
             -0.140468835170823E+02
              0.131702106992454E+02
              0.773910777583114E+02
              0.467313398052104E+02
             -0.154643817586923E+02
             -0.506436208793112E+02
             -0.554435319933580E+01
              0.308386111235370E+02
             -0.112604954160136E+02
             -0.760654315140532E+02
             -0.273899739810278E+01
             -0.896196874066726E+02
             -0.478790190540921E+02
              0.773927732105943E+02
             -0.486966327154288E+02
             -0.641213128316621E+02
             -0.518039707694475E+02
             -0.352187493891615E+02
              0.343199998099521E+02
              0.827228981970808E+02
             -0.359888574279427E+01
              0.278375422166541E+02
             -0.184930708635915E+02
             -0.698457354291420E+02
              0.468492179966698E+02
             -0.448170460921316E+02
              0.323772722791010E+02
              0.378553276201617E+02
             -0.663437929181146E+01
              0.393512458141623E+02
              0.441292370499145E+02
              0.101408080688523E+03
             -0.157045065779971E+02
             -0.459142508013658E+02
             -0.617135727689706E+02
             -0.124855750313442E+02
             -0.235105907044970E+02
              0.103699238867176E+03
             -0.452125305996222E+02
              0.105762623210678E+02
              0.975661171889294E+01
             -0.266198825169619E+02
             -0.804322840993651E+02
             -0.704169338607585E+01
              0.986510450746958E+02
              0.947689069452083E+01
              0.814781646386723E+01
             -0.530428042946306E+02
             -0.609057814297278E+02
             -0.570630800632249E+01
              0.503429606682728E+02
             -0.223624552488520E+02
              0.108671474913166E+03
             -0.438474847203075E+02
              0.147520217780506E+02
             -0.225458744367072E+02
             -0.722703989765649E+02
              0.171295466256288E+01
             -0.505214642146502E+02
             -0.765512221460109E+02
              0.621093764423517E+01
              0.236823784722773E+01
              0.517467479758354E+02
              0.188846625040478E+02
             -0.325868581332460E+02
              0.231744065912164E+02
             -0.816468369256769E+02
             -0.525122839542593E+02
              0.908010725899834E+02
              0.143010077844375E+02
             -0.188752271862548E+02
             -0.354418932768255E+02
             -0.271226038370389E+01
             -0.591641044156393E+01
              0.836065036258150E+02
              0.420486915146294E+02
             -0.166917290251786E+02
             -0.122329689343587E+02
             -0.430388689942529E+02
             -0.201990044892881E+02
             -0.674379028485766E+02
              0.463092848732626E+02
              0.551206522526365E+01
              0.145640397417740E+02
              0.157008310007286E+02
             -0.621599415928703E+00
             -0.169755741509148E+02
             -0.309696382941434E+01
             -0.101145369699002E+03
             -0.230954006027461E+02
             -0.769495000682667E+01
             -0.953251931332926E+01
              0.550064468660184E+02
              0.628011653030450E+02
              0.165800062335030E+02
             -0.976916785086455E+02
              0.651777241342477E+02
             -0.216548699130491E+02
             -0.379533622179078E+02
             -0.870112430386315E+02
             -0.389206277251655E+02
              0.568315846721534E+02
              0.246350449639272E+02
              0.523895202612078E+01
              0.294483760789062E+02
             -0.568677683615447E+02
             -0.425352450928130E+02
              0.519259623008057E+02
              0.389891903759282E+02
              0.522268519307993E+02
             -0.123209955840758E+01
              0.691273761407029E+01
              0.573041983659156E+02
              0.969496018245428E+02
             -0.301749000413655E+02
              0.325482625589862E+02
             -0.119683053720747E+02
             -0.415147774941394E+02
             -0.316617384851345E+02
             -0.302179515553825E+02
             -0.132209823291253E+02
             -0.526658098346635E+02
             -0.218801987436376E+02
             -0.142075804379228E+03
              0.371162697157354E+02
              0.208315080051922E+02
             -0.395152974360037E+01
             -0.382724717049354E+02
             -0.205722670950756E+02
             -0.530352682260811E+02
              0.151983095085399E+02
              0.825487413670021E+02
             -0.253383203769193E+02
             -0.164163300568654E+02
              0.239291516147111E+02
             -0.492639025179942E+02
              0.886491058393602E+02
              0.155636308121223E+02
              0.227157342471695E+02
              0.493773256629052E+02
              0.319940035429283E+01
              0.545908718077055E+02
              0.144128564935770E+02
             -0.107022620492087E+02
              0.738561932127823E+01
              0.745214827268228E+00
              0.731982318394859E+02
              0.101748497417401E+02
              0.121649046638836E+02
             -0.130668147100188E+02
              0.133185280342892E+02
             -0.917457848636973E+02
             -0.328530498476658E+02
             -0.460433198101662E+02
              0.488888912287985E+02
             -0.293239595969001E+02
             -0.662676030663832E+02
              0.542415751415755E+02
             -0.123013829988217E+02
              0.442964389618512E+02
             -0.904977218417202E+02
              0.233731396997039E+02
              0.861712657368841E+01
              0.584116775750783E+01
             -0.838132705133927E+01
             -0.907806900879393E+01
              0.482850356311399E+02
              0.201679873085862E+01
             -0.478211181935085E+02
             -0.177355120867563E+02
              0.278322262075285E+02
             -0.118723208795747E+03
             -0.935973451260168E+02
              0.397686025067748E+01
              0.118412433343995E+02
             -0.416189387736235E+02
             -0.391695554479537E+01
              0.112826863828407E+03
              0.308882035272353E+02
             -0.575224973678901E+02
              0.931017717566519E+01
             -0.970197042001880E+01
              0.106456939767545E+02
             -0.339829648033775E+02
              0.196649807614145E+02
              0.286303655784004E+02
             -0.304205352699864E+01
              0.108916045960665E+03
             -0.140915097930531E+02
             -0.318243128613101E+02
              0.144627510672789E+02
              0.469440306073390E+02
             -0.358370252697878E+02
             -0.318429837666995E+01
              0.971270003289807E+02
             -0.466873036094171E+01
              0.625208079799722E+02
              0.136540405360489E+02
             -0.908532534149901E+01
             -0.306634232264145E+02
              0.570201858041460E+02
             -0.518120171608649E+02
             -0.223858870118238E+01
             -0.171177007383728E+02
             -0.408131490623021E+02
              0.185764058011159E+02
              0.240713947180515E+02
              0.116452989077237E+02
              0.700572145518436E+00
             -0.386963898681610E+02
              0.216542963162677E+02
             -0.675622102591728E+01
             -0.248099020062649E+02
             -0.212107713681255E+02
              0.204785164704087E+02
             -0.601031285459123E+01
             -0.351695062836370E+02
             -0.107346075886339E+03
              0.103236275558537E+02
              0.250365059973955E+02
             -0.390332446471573E+02
             -0.212396025511376E+02
              0.812529032424353E+02
              0.656389790668487E+01
              0.313382255147797E+02
              0.394935310335282E+01
              0.324358512566450E+02
              0.649730494556434E+01
             -0.375673780760547E+02
             -0.235076747661080E+01
              0.880800095013342E+01
              0.275744732966774E+02
              0.787355338134141E+02
              0.510655604128497E+02
              0.196586544336640E+00
              0.170038208977336E+02
              0.617200589663778E+02
              0.237644382259721E+02
             -0.757800787024220E+02
             -0.275616945842000E+02
              0.152156252165340E+02
              0.567714464938240E+01
              0.256720670146274E+02
             -0.551384697934147E+02
              0.904956099172702E+01
              0.388575602242486E+02
              0.501303962503291E+02
             -0.437821534510970E+02
             -0.692630274142846E+01
             -0.210017289717553E+01
             -0.135013973685479E+02
             -0.367547076042566E+02
             -0.216369202878248E+02
             -0.204407293674674E+01
              0.798928538248452E+01
              0.424143777255944E+02
             -0.310289735603150E+02
              0.831528349257273E+02
              0.329866424859698E+02
              0.221499207214511E+02
              0.335387905506367E+02
              0.325241092089371E+02
              0.348199503427094E+02
              0.540860920069663E+02
             -0.437026946444646E+02
              0.623799530752277E+02
             -0.113018264767303E+03
              0.309562990399533E+02
             -0.107250339378579E+03
              0.860112165857859E+02
              0.695825654365411E+02
             -0.110515180607853E+02
             -0.496598122249563E+02
             -0.432295205854463E+02
             -0.627392663986899E+02
             -0.632927837001762E+02
              0.555504035544182E+02
              0.408381000194752E+02
              0.238412263096343E+02
              0.375963880723426E+02
              0.405700405590269E+02
             -0.384716517204872E+02
             -0.198983304458607E+02
              0.590258525634417E+02
             -0.116875188171889E+02
              0.555132878408496E+02
              0.704321375395837E+02
             -0.555797953551335E+01
             -0.711158437241552E+02
             -0.885037882184520E+00
             -0.245445672687250E+01
             -0.889491371155873E+01
             -0.178589385239616E+01
             -0.657451717702187E+02
             -0.211836564600666E+02
              0.545805309811583E+01
              0.905353042943767E+01
              0.472124919959681E+02
             -0.400393357048438E+02
              0.661602600517073E+02
             -0.427992689665161E+02
              0.211980832046810E+02
              0.353111533482520E+02
 
 BEEF-vdW xc energy contributions
           1 :   -787.939718628044     
           2 :    723.583791120712     
           3 :   -612.341288483551     
           4 :    481.605253941810     
           5 :   -358.982688677558     
           6 :    264.244601569995     
           7 :   -204.974411388497     
           8 :    176.634050246762     
           9 :   -166.582523426540     
          10 :    160.190275859134     
          11 :   -146.594243822302     
          12 :    121.932373034624     
          13 :   -89.2090374307581     
          14 :    55.4109642999696     
          15 :   -27.5427990719539     
          16 :    9.37389264948411     
          17 :  -0.145649565006920     
          18 :   -4.49916530594385     
          19 :    10.0502496591125     
          20 :   -20.4261895545474     
          21 :    36.2773644600362     
          22 :   -54.9690535244664     
          23 :    72.0865618486130     
          24 :   -83.6415198881905     
          25 :    87.8922434973665     
          26 :   -85.9772189846905     
          27 :    81.1650061331770     
          28 :   -77.1753858791473     
          29 :    76.4156891816112     
          30 :   -78.9698425770791     
          31 :   -86.3603610818278     
          32 :   -66.1088341114976     

     Writing output data file ./pwscf.save/
 
     init_run     :    374.18s CPU    379.06s WALL (       1 calls)
     electrons    :  16678.23s CPU  16835.59s WALL (       1 calls)
     forces       :    106.08s CPU    107.40s WALL (       1 calls)

     Called by init_run:
     wfcinit      :    325.64s CPU    329.36s WALL (       1 calls)
     potinit      :     44.91s CPU     45.27s WALL (       1 calls)
     hinit0       :      1.51s CPU      1.55s WALL (       1 calls)

     Called by electrons:
     c_bands      :  13637.60s CPU  13758.02s WALL (      23 calls)
     sum_band     :   2067.24s CPU   2083.86s WALL (      23 calls)
     v_of_rho     :    124.38s CPU    129.39s WALL (      23 calls)
     newd         :     39.83s CPU     55.16s WALL (      23 calls)
     PAW_pot      :    156.81s CPU    156.83s WALL (      23 calls)
     mix_rho      :    698.05s CPU    698.97s WALL (      23 calls)
     vdW_kernel   :     33.55s CPU     33.56s WALL (       1 calls)

     Called by c_bands:
     init_us_2    :     97.74s CPU     98.10s WALL (     624 calls)
     cegterg      :  12668.17s CPU  12788.14s WALL (     299 calls)

     Called by *egterg:
     cdiaghg      :    106.07s CPU    106.18s WALL (    1707 calls)
     h_psi        :   8401.41s CPU   8443.38s WALL (    1733 calls)
     s_psi        :   1279.98s CPU   1280.05s WALL (    1733 calls)
     g_psi        :     18.72s CPU     18.74s WALL (    1421 calls)

     Called by h_psi:
     h_psi:calbec :   1208.17s CPU   1208.41s WALL (    1733 calls)
     vloc_psi     :   5881.55s CPU   5883.54s WALL (    1733 calls)
     add_vuspsi   :   1280.35s CPU   1280.53s WALL (    1733 calls)

     General routines
     calbec       :   1779.22s CPU   1779.52s WALL (    2084 calls)
     fft          :     54.32s CPU     54.35s WALL (    3403 calls)
     ffts         :    224.21s CPU    224.26s WALL (   13860 calls)
     fftw         :   5986.15s CPU   5987.25s WALL (  377480 calls)
 
     Parallel routines
 
     PWSCF        :      4h47m CPU      4h50m WALL

 
   This run was terminated on:  15:25:28  28Sep2022            

=------------------------------------------------------------------------------=
   JOB DONE.
=------------------------------------------------------------------------------=
