
     Program PWSCF v.6.7MaX starts on 26Sep2022 at 14:15: 4 

     This program is part of the open-source Quantum ESPRESSO suite
     for quantum simulation of materials; please cite
         "P. Giannozzi et al., J. Phys.:Condens. Matter 21 395502 (2009);
         "P. Giannozzi et al., J. Phys.:Condens. Matter 29 465901 (2017);
          URL http://www.quantum-espresso.org", 
     in publications or presentations arising from this work. More details at
     http://www.quantum-espresso.org/quote

     Parallel version (MPI), running on     1 processors

     MPI processes distributed on     1 nodes
     Reading input from och3-ensemble.in
Warning: card &CELL ignored
Warning: card / ignored

     Current dimensions of program PWSCF are:
     Max number of different atomic species (ntypx) = 10
     Max number of k-points (npk) =  40000
     Max angular momentum in pseudopotentials (lmaxx) =  3
     file Pt.pbe-n-kjpaw_psl.1.0.0.UPF: wavefunction(s)  6S 5D renormalized
     file O.pbe-nl-kjpaw_psl.1.0.0.UPF: wavefunction(s)  2S 2P renormalized
     file C.pbe-n-kjpaw_psl.1.0.0.UPF: wavefunction(s)  2S 2P renormalized
     file H.pbe-kjpaw_psl.1.0.0.UPF: wavefunction(s)  1S renormalized

     **************************************************************************
     Initializing libbeef V0.1.2 with the BEEF-vdW functional.
     Citation: Wellendorff et al., PRB 85, 235149 (2012).
     **************************************************************************


     IMPORTANT: XC functional enforced from input :
     Exchange-correlation= BEEF-VDW
                           (   1   4  43  14   2   0   0)
     Any further DFT definition will be discarded
     Please, verify this is what you really want


     Subspace diagonalization in iterative solution of the eigenvalue problem:
     a serial algorithm will be used

 
     G-vector sticks info
     --------------------
     sticks:   dense  smooth     PW     G-vecs:    dense   smooth      PW
     Sum        4267    4267   1159               715507   715507  100661
 


     bravais-lattice index     =            0
     lattice parameter (alat)  =      16.0349  a.u.
     unit-cell volume          =   11388.8270 (a.u.)^3
     number of atoms/cell      =           41
     number of atomic types    =            4
     number of electrons       =       373.00
     number of Kohn-Sham states=          224
     kinetic-energy cutoff     =      60.0000  Ry
     charge density cutoff     =     240.0000  Ry
     scf convergence threshold =      1.0E-06
     mixing beta               =       0.7000
     number of iterations used =            8  local-TF  mixing
     Exchange-correlation= BEEF-VDW
                           (   1   4  43  14   2   0   0)

     celldm(1)=  16.034858  celldm(2)=   0.000000  celldm(3)=   0.000000
     celldm(4)=   0.000000  celldm(5)=   0.000000  celldm(6)=   0.000000

     crystal axes: (cart. coord. in units of alat)
               a(1) = (   1.000000   0.000000   0.000000 )  
               a(2) = (   0.500000   0.866025   0.000000 )  
               a(3) = (   0.000000   0.000000   3.189723 )  

     reciprocal axes: (cart. coord. in units 2 pi/alat)
               b(1) = (  1.000000 -0.577350  0.000000 )  
               b(2) = (  0.000000  1.154701  0.000000 )  
               b(3) = (  0.000000  0.000000  0.313507 )  


     PseudoPot. # 1 for Pt read from file:
     /users/bkreitz1/quantum-espresso/potentials/Pt.pbe-n-kjpaw_psl.1.0.0.UPF
     MD5 check sum: 04dc8a03c51ece93fc7b5889c2958091
     Pseudo is Projector augmented-wave + core cor, Zval = 10.0
     Generated using 'atomic' code by A. Dal Corso  v.6.7MaX
     Shape of augmentation charge: PSQ
     Using radial grid of 1277 points,  6 beta functions with: 
                l(1) =   0
                l(2) =   0
                l(3) =   1
                l(4) =   1
                l(5) =   2
                l(6) =   2
     Q(r) pseudized with 0 coefficients 


     PseudoPot. # 2 for O  read from file:
     /users/bkreitz1/quantum-espresso/potentials/O.pbe-nl-kjpaw_psl.1.0.0.UPF
     MD5 check sum: eef08af8b58d9ec80f8fdb78829eb7cf
     Pseudo is Projector augmented-wave + core cor, Zval =  6.0
     Generated using 'atomic' code by A. Dal Corso  v.6.7MaX
     Shape of augmentation charge: PSQ
     Using radial grid of 1095 points,  4 beta functions with: 
                l(1) =   0
                l(2) =   0
                l(3) =   1
                l(4) =   1
     Q(r) pseudized with 0 coefficients 


     PseudoPot. # 3 for C  read from file:
     /users/bkreitz1/quantum-espresso/potentials/C.pbe-n-kjpaw_psl.1.0.0.UPF
     MD5 check sum: a169b0ebad56f5ec0d79c4633f80bf22
     Pseudo is Projector augmented-wave + core cor, Zval =  4.0
     Generated using 'atomic' code by A. Dal Corso  v.6.7MaX
     Shape of augmentation charge: PSQ
     Using radial grid of 1073 points,  4 beta functions with: 
                l(1) =   0
                l(2) =   0
                l(3) =   1
                l(4) =   1
     Q(r) pseudized with 0 coefficients 


     PseudoPot. # 4 for H  read from file:
     /users/bkreitz1/quantum-espresso/potentials/H.pbe-kjpaw_psl.1.0.0.UPF
     MD5 check sum: ae98473e6dc62675f0d0baffdab24f65
     Pseudo is Projector augmented-wave, Zval =  1.0
     Generated using 'atomic' code by A. Dal Corso  v.6.7MaX
     Shape of augmentation charge: PSQ
     Using radial grid of  929 points,  2 beta functions with: 
                l(1) =   0
                l(2) =   0
     Q(r) pseudized with 0 coefficients 


     atomic species   valence    mass     pseudopotential
        Pt            10.00   195.08400     Pt( 1.00)
        O              6.00    15.99900     O ( 1.00)
        C              4.00    12.01100     C ( 1.00)
        H              1.00     1.00800     H ( 1.00)

     No symmetry found



   Cartesian axes

     site n.     atom                  positions (alat units)
         1           Pt  tau(   1) = (   0.0000000   0.0000000   1.0017346  )
         2           Pt  tau(   2) = (   0.3333333   0.0000000   1.0017346  )
         3           Pt  tau(   3) = (   0.6666667   0.0000000   1.0017346  )
         4           Pt  tau(   4) = (   0.1666667   0.2886751   1.0017346  )
         5           Pt  tau(   5) = (   0.5000000   0.2886751   1.0017346  )
         6           Pt  tau(   6) = (   0.8333333   0.2886751   1.0017346  )
         7           Pt  tau(   7) = (   0.3333333   0.5773503   1.0017346  )
         8           Pt  tau(   8) = (   0.6666667   0.5773503   1.0017346  )
         9           Pt  tau(   9) = (   1.0000000   0.5773503   1.0017346  )
        10           Pt  tau(  10) = (   0.1666667   0.0962250   1.2739001  )
        11           Pt  tau(  11) = (   0.5000000   0.0962250   1.2739001  )
        12           Pt  tau(  12) = (   0.8333333   0.0962250   1.2739001  )
        13           Pt  tau(  13) = (   0.3333333   0.3849002   1.2739001  )
        14           Pt  tau(  14) = (   0.6666667   0.3849002   1.2739001  )
        15           Pt  tau(  15) = (   1.0000000   0.3849002   1.2739001  )
        16           Pt  tau(  16) = (   0.5000000   0.6735753   1.2739001  )
        17           Pt  tau(  17) = (   0.8333333   0.6735753   1.2739001  )
        18           Pt  tau(  18) = (   1.1666667   0.6735753   1.2739001  )
        19           Pt  tau(  19) = (   0.0005619   0.1921234   1.5418185  )
        20           Pt  tau(  20) = (   0.3327636   0.1921343   1.5417924  )
        21           Pt  tau(  21) = (   0.6666504   0.1917332   1.5413052  )
        22           Pt  tau(  22) = (   0.1666590   0.4797627   1.5468617  )
        23           Pt  tau(  23) = (   0.4993496   0.4815004   1.5413032  )
        24           Pt  tau(  24) = (   0.8339512   0.4815013   1.5413198  )
        25           Pt  tau(  25) = (   0.3345087   0.7705055   1.5468558  )
        26           Pt  tau(  26) = (   0.6666535   0.7704687   1.5417963  )
        27           Pt  tau(  27) = (   0.9987807   0.7705229   1.5468932  )
        28           Pt  tau(  28) = (  -0.0126253  -0.0073000   1.8145077  )
        29           Pt  tau(  29) = (   0.3459614  -0.0072832   1.8144905  )
        30           Pt  tau(  30) = (   0.6666707   0.0004217   1.8209817  )
        31           Pt  tau(  31) = (   0.1666778   0.3032360   1.8145071  )
        32           Pt  tau(  32) = (   0.5019779   0.2898257   1.8135196  )
        33           Pt  tau(  33) = (   0.8313539   0.2898079   1.8135429  )
        34           Pt  tau(  34) = (   0.3336731   0.5771439   1.8210089  )
        35           Pt  tau(  35) = (   0.6666504   0.5750472   1.8135203  )
        36           Pt  tau(  36) = (   0.9996543   0.5771403   1.8209973  )
        37           O   tau(  37) = (   0.1669125   0.0959929   1.9776876  )
        38           C   tau(  38) = (   0.1673222   0.0956594   2.1473842  )
        39           H   tau(  39) = (   0.6674557   0.8397470   2.1886940  )
        40           H   tau(  40) = (   0.2728857   0.1566437   2.1887612  )
        41           H   tau(  41) = (   1.0618022   0.1564653   2.1903477  )

     number of k points=    13  Marzari-Vanderbilt smearing, width (Ry)=  0.0200
                       cart. coord. in units 2pi/alat
        k(    1) = (   0.0000000   0.0000000   0.0000000), wk =   0.0800000
        k(    2) = (   0.0000000   0.2309401   0.0000000), wk =   0.1600000
        k(    3) = (   0.0000000   0.4618802   0.0000000), wk =   0.1600000
        k(    4) = (   0.2000000  -0.1154701   0.0000000), wk =   0.1600000
        k(    5) = (   0.2000000   0.1154701   0.0000000), wk =   0.1600000
        k(    6) = (   0.2000000   0.3464102   0.0000000), wk =   0.1600000
        k(    7) = (   0.2000000  -0.5773503   0.0000000), wk =   0.1600000
        k(    8) = (   0.2000000  -0.3464102   0.0000000), wk =   0.1600000
        k(    9) = (   0.4000000  -0.2309401   0.0000000), wk =   0.1600000
        k(   10) = (   0.4000000  -0.0000000   0.0000000), wk =   0.1600000
        k(   11) = (   0.4000000   0.2309401   0.0000000), wk =   0.1600000
        k(   12) = (   0.4000000  -0.6928203   0.0000000), wk =   0.1600000
        k(   13) = (   0.4000000  -0.4618802   0.0000000), wk =   0.1600000

     Dense  grid:   715507 G-vectors     FFT dimensions: (  80,  80, 256)

     Estimated max dynamical RAM per process >       8.66 GB

     Check: negative core charge=   -0.000001

     Initial potential from superposition of free atoms

     starting charge  372.99382, renormalised to  373.00000

     negative rho (up, down):  1.160E-02 0.000E+00


     %%%%%%%%%%%%%%%%%%%%%%%%%%%%%%%%%%%%%%%%%%%%%%%%%%%%%%%%%%%%%%%%%%%%%%%%
     %                                                                      %
     % You are using vdW-DF, which was implemented by the Thonhauser group. %
     % Please cite the following two papers that made this development      %
     % possible and the two reviews that describe the various versions:     %
     %                                                                      %
     %   T. Thonhauser et al., PRL 115, 136402 (2015).                      %
     %   T. Thonhauser et al., PRB 76, 125112 (2007).                       %
     %   K. Berland et al., Rep. Prog. Phys. 78, 066501 (2015).             %
     %   D.C. Langreth et al., J. Phys.: Condens. Matter 21, 084203 (2009). %
     %                                                                      %
     %                                                                      %
     % If you are calculating the stress with vdW-DF, please also cite:     %
     %                                                                      %
     %   R. Sabatini et al., J. Phys.: Condens. Matter 24, 424209 (2012).   %
     %                                                                      %
     %%%%%%%%%%%%%%%%%%%%%%%%%%%%%%%%%%%%%%%%%%%%%%%%%%%%%%%%%%%%%%%%%%%%%%%%


     Starting wfcs are  335 randomized atomic wfcs
     Checking if some PAW data can be deallocated... 

     total cpu time spent up to now is      340.5 secs

     Self-consistent Calculation

     iteration #  1     ecut=    60.00 Ry     beta= 0.70
     Davidson diagonalization with overlap
     ethr =  1.00E-02,  avg # of iterations =  2.5

     Threshold (ethr) on eigenvalues was too large:
     Diagonalizing with lowered threshold

     Davidson diagonalization with overlap
     ethr =  5.79E-04,  avg # of iterations =  5.0

     negative rho (up, down):  1.162E-02 0.000E+00

     total cpu time spent up to now is     1736.7 secs

     total energy              =  -27819.11422763 Ry
     estimated scf accuracy    <       2.35881381 Ry

     iteration #  2     ecut=    60.00 Ry     beta= 0.70
     Davidson diagonalization with overlap
     ethr =  6.32E-04,  avg # of iterations =  5.2

     negative rho (up, down):  1.013E-02 0.000E+00

     total cpu time spent up to now is     2356.2 secs

     total energy              =  -27819.25776849 Ry
     estimated scf accuracy    <       1.10782719 Ry

     iteration #  3     ecut=    60.00 Ry     beta= 0.70
     Davidson diagonalization with overlap
     ethr =  2.97E-04,  avg # of iterations =  2.3

     negative rho (up, down):  6.975E-03 0.000E+00

     total cpu time spent up to now is     2959.1 secs

     total energy              =  -27819.30437024 Ry
     estimated scf accuracy    <       0.24116645 Ry

     iteration #  4     ecut=    60.00 Ry     beta= 0.70
     Davidson diagonalization with overlap
     c_bands:  1 eigenvalues not converged
     c_bands:  1 eigenvalues not converged
     c_bands:  1 eigenvalues not converged
     ethr =  6.47E-05,  avg # of iterations = 10.8

     negative rho (up, down):  4.852E-03 0.000E+00

     total cpu time spent up to now is     3898.3 secs

     total energy              =  -27819.36113340 Ry
     estimated scf accuracy    <       0.09168725 Ry

     iteration #  5     ecut=    60.00 Ry     beta= 0.70
     Davidson diagonalization with overlap
     ethr =  2.46E-05,  avg # of iterations =  3.7

     negative rho (up, down):  3.784E-03 0.000E+00

     total cpu time spent up to now is     4541.5 secs

     total energy              =  -27819.36677704 Ry
     estimated scf accuracy    <       0.02798469 Ry

     iteration #  6     ecut=    60.00 Ry     beta= 0.70
     Davidson diagonalization with overlap
     c_bands:  2 eigenvalues not converged
     c_bands:  1 eigenvalues not converged
     ethr =  7.50E-06,  avg # of iterations =  9.2

     negative rho (up, down):  3.292E-03 0.000E+00

     total cpu time spent up to now is     5279.5 secs

     total energy              =  -27819.36956695 Ry
     estimated scf accuracy    <       0.01101591 Ry

     iteration #  7     ecut=    60.00 Ry     beta= 0.70
     Davidson diagonalization with overlap
     c_bands:  1 eigenvalues not converged
     c_bands:  1 eigenvalues not converged
     c_bands:  1 eigenvalues not converged
     c_bands:  1 eigenvalues not converged
     ethr =  2.95E-06,  avg # of iterations = 12.3

     negative rho (up, down):  3.154E-03 0.000E+00

     total cpu time spent up to now is     6040.5 secs

     total energy              =  -27819.37049067 Ry
     estimated scf accuracy    <       0.00377685 Ry

     iteration #  8     ecut=    60.00 Ry     beta= 0.70
     Davidson diagonalization with overlap
     c_bands:  1 eigenvalues not converged
     c_bands:  1 eigenvalues not converged
     c_bands:  1 eigenvalues not converged
     c_bands:  1 eigenvalues not converged
     c_bands:  1 eigenvalues not converged
     c_bands:  1 eigenvalues not converged
     ethr =  1.01E-06,  avg # of iterations = 13.4

     negative rho (up, down):  3.373E-03 0.000E+00

     total cpu time spent up to now is     6833.3 secs

     total energy              =  -27819.37125584 Ry
     estimated scf accuracy    <       0.00215005 Ry

     iteration #  9     ecut=    60.00 Ry     beta= 0.70
     Davidson diagonalization with overlap
     c_bands:  1 eigenvalues not converged
     c_bands:  1 eigenvalues not converged
     c_bands:  1 eigenvalues not converged
     c_bands:  1 eigenvalues not converged
     c_bands:  1 eigenvalues not converged
     c_bands:  1 eigenvalues not converged
     ethr =  5.76E-07,  avg # of iterations = 10.9

     negative rho (up, down):  4.349E-03 0.000E+00

     total cpu time spent up to now is     7504.5 secs

     total energy              =  -27819.37149229 Ry
     estimated scf accuracy    <       0.00103299 Ry

     iteration # 10     ecut=    60.00 Ry     beta= 0.70
     Davidson diagonalization with overlap
     ethr =  2.77E-07,  avg # of iterations = 10.8

     negative rho (up, down):  5.247E-03 0.000E+00

     total cpu time spent up to now is     8221.9 secs

     total energy              =  -27819.37162456 Ry
     estimated scf accuracy    <       0.00069948 Ry

     iteration # 11     ecut=    60.00 Ry     beta= 0.70
     Davidson diagonalization with overlap
     ethr =  1.88E-07,  avg # of iterations =  1.2

     negative rho (up, down):  6.503E-03 0.000E+00

     total cpu time spent up to now is     8773.7 secs

     total energy              =  -27819.37168192 Ry
     estimated scf accuracy    <       0.00051113 Ry

     iteration # 12     ecut=    60.00 Ry     beta= 0.70
     Davidson diagonalization with overlap
     ethr =  1.37E-07,  avg # of iterations =  2.5

     negative rho (up, down):  7.895E-03 0.000E+00

     total cpu time spent up to now is     9364.9 secs

     total energy              =  -27819.37171063 Ry
     estimated scf accuracy    <       0.00036468 Ry

     iteration # 13     ecut=    60.00 Ry     beta= 0.70
     Davidson diagonalization with overlap
     ethr =  9.78E-08,  avg # of iterations =  1.2

     negative rho (up, down):  1.001E-02 0.000E+00

     total cpu time spent up to now is     9929.8 secs

     total energy              =  -27819.37169917 Ry
     estimated scf accuracy    <       0.00026882 Ry

     iteration # 14     ecut=    60.00 Ry     beta= 0.70
     Davidson diagonalization with overlap
     ethr =  7.21E-08,  avg # of iterations =  1.7

     negative rho (up, down):  1.221E-02 0.000E+00

     total cpu time spent up to now is    10504.9 secs

     total energy              =  -27819.37168265 Ry
     estimated scf accuracy    <       0.00012414 Ry

     iteration # 15     ecut=    60.00 Ry     beta= 0.70
     Davidson diagonalization with overlap
     ethr =  3.33E-08,  avg # of iterations =  2.2

     negative rho (up, down):  1.301E-02 0.000E+00

     total cpu time spent up to now is    11113.8 secs

     total energy              =  -27819.37168533 Ry
     estimated scf accuracy    <       0.00008208 Ry

     iteration # 16     ecut=    60.00 Ry     beta= 0.70
     Davidson diagonalization with overlap
     ethr =  2.20E-08,  avg # of iterations =  1.1

     negative rho (up, down):  1.271E-02 0.000E+00

     total cpu time spent up to now is    11662.0 secs

     total energy              =  -27819.37169093 Ry
     estimated scf accuracy    <       0.00002922 Ry

     iteration # 17     ecut=    60.00 Ry     beta= 0.70
     Davidson diagonalization with overlap
     ethr =  7.83E-09,  avg # of iterations =  4.0

     negative rho (up, down):  1.274E-02 0.000E+00

     total cpu time spent up to now is    12322.8 secs

     total energy              =  -27819.37169642 Ry
     estimated scf accuracy    <       0.00000979 Ry

     iteration # 18     ecut=    60.00 Ry     beta= 0.70
     Davidson diagonalization with overlap
     ethr =  2.63E-09,  avg # of iterations =  4.2

     negative rho (up, down):  1.264E-02 0.000E+00

     total cpu time spent up to now is    13095.6 secs

     total energy              =  -27819.37169962 Ry
     estimated scf accuracy    <       0.00000244 Ry

     iteration # 19     ecut=    60.00 Ry     beta= 0.70
     Davidson diagonalization with overlap
     ethr =  6.53E-10,  avg # of iterations =  4.0

     negative rho (up, down):  1.267E-02 0.000E+00

     total cpu time spent up to now is    13861.4 secs

     total energy              =  -27819.37170017 Ry
     estimated scf accuracy    <       0.00000181 Ry

     iteration # 20     ecut=    60.00 Ry     beta= 0.70
     Davidson diagonalization with overlap
     ethr =  4.84E-10,  avg # of iterations =  1.2

     negative rho (up, down):  1.273E-02 0.000E+00

     total cpu time spent up to now is    14392.6 secs

     End of self-consistent calculation

          k = 0.0000 0.0000 0.0000 ( 89383 PWs)   bands (ev):

   -18.7944 -10.4715  -6.8798  -5.8094  -5.3343  -5.0038  -4.9909  -4.4755
    -4.4514  -4.4512  -4.4451  -4.4327  -4.4293  -4.4276  -4.3200  -3.9155
    -3.9154  -3.9074  -3.9062  -3.8828  -3.8320  -3.5055  -3.5038  -3.4421
    -3.4418  -3.4131  -3.3638  -3.2307  -3.2306  -3.2267  -3.2262  -3.1939
    -3.1390  -3.0546  -3.0546  -3.0082  -3.0082  -2.9911  -2.9766  -2.9764
    -2.9627  -2.9310  -2.9202  -2.9201  -2.8238  -2.4557  -2.3995  -2.3988
    -2.3497  -2.3497  -2.3411  -2.3171  -2.3171  -2.2661  -2.1969  -2.1490
    -2.1487  -2.0688  -2.0686  -1.9014  -1.8998  -1.5966  -1.5960  -1.5847
    -1.5453  -1.5452  -1.4837  -1.4575  -1.4049  -1.4047  -1.3613  -1.3613
    -1.3463  -1.3307  -1.3177  -1.3175  -1.3173  -1.2907  -1.2628  -1.2532
    -1.2531  -1.2469  -1.2466  -1.1422  -1.1408  -1.1408  -1.1123  -1.1122
    -1.0957  -0.9743  -0.9495  -0.9439  -0.9439  -0.9292  -0.9290  -0.8553
    -0.8550  -0.7903  -0.7764  -0.7764  -0.6804  -0.6804  -0.6465  -0.6322
    -0.6312  -0.5712  -0.5710  -0.5218  -0.5217  -0.5111  -0.4665  -0.4655
    -0.4641  -0.3599  -0.0658  -0.0657  -0.0568  -0.0128  -0.0125   0.0039
     0.0313   0.0314   0.1212   0.1545   0.1551   0.1648   0.1649   0.2047
     0.2705   0.2707   0.3305   0.3569   0.4124   0.4139   0.4842   0.4844
     0.4935   0.5083   0.5084   0.6774   0.7453   0.7525   0.7526   0.8004
     0.8006   0.8189   0.8191   0.8946   0.9074   0.9234   0.9239   1.0167
     1.0168   1.0214   1.0429   1.1313   1.1317   1.1790   1.1790   1.2016
     1.2145   1.2146   1.2276   1.2396   1.2397   1.2458   1.3430   1.3435
     1.3436   1.3511   1.3512   1.4143   1.4314   1.4314   1.4451   1.4453
     1.4623   1.4954   1.4958   1.4985   1.5680   1.5680   1.5704   1.5838
     1.6019   1.6020   1.6498   1.6499   1.6878   1.6882   1.7076   1.7154
     1.7537   1.7541   1.9319   1.9320   1.9904   2.0335   2.0335   2.0340
     2.0942   2.0948   2.1582   2.8302   2.8971   2.8971   2.9012   3.1077
     3.1088   3.7637   5.2282   5.2284   5.2303   5.3401   5.3413   5.6218
     5.9439   6.6563   6.8159   6.8159   6.8238   6.8578   6.8578   6.8832

          k = 0.0000 0.2309 0.0000 ( 89356 PWs)   bands (ev):

   -18.7944 -10.4711  -6.7351  -5.7356  -5.2695  -5.0548  -4.9930  -4.8772
    -4.5500  -4.5476  -4.3086  -4.2833  -4.2339  -4.2114  -4.1842  -4.0046
    -3.9832  -3.8473  -3.8387  -3.8255  -3.7766  -3.5345  -3.4444  -3.4360
    -3.3958  -3.3771  -3.3535  -3.2833  -3.2831  -3.2377  -3.2338  -3.2150
    -3.1562  -3.1388  -3.1249  -3.0289  -3.0272  -2.9962  -2.9909  -2.8871
    -2.8226  -2.7951  -2.7871  -2.7415  -2.6969  -2.5427  -2.5087  -2.4690
    -2.4545  -2.4187  -2.4037  -2.3528  -2.2613  -2.1874  -2.1660  -2.1425
    -2.1180  -2.0665  -2.0423  -1.9457  -1.9069  -1.8337  -1.7450  -1.7189
    -1.6815  -1.6475  -1.6122  -1.5830  -1.5761  -1.5360  -1.5128  -1.5052
    -1.4598  -1.4147  -1.3898  -1.3563  -1.3406  -1.3205  -1.2727  -1.2467
    -1.2343  -1.1767  -1.1680  -1.1643  -1.1263  -1.0744  -1.0705  -1.0569
    -1.0492  -0.9880  -0.9871  -0.9558  -0.9395  -0.9002  -0.8823  -0.8602
    -0.8229  -0.8187  -0.7803  -0.7682  -0.7479  -0.7300  -0.6938  -0.6796
    -0.6464  -0.6397  -0.5929  -0.5675  -0.5356  -0.5146  -0.4703  -0.4542
    -0.4400  -0.4337  -0.3852  -0.3797  -0.3309  -0.2900  -0.2075  -0.0986
    -0.0442  -0.0228  -0.0140   0.0423   0.0506   0.0656   0.1103   0.1509
     0.2026   0.2652   0.3115   0.3624   0.3701   0.3851   0.4070   0.4144
     0.4180   0.4993   0.5234   0.5956   0.6115   0.6136   0.6374   0.6571
     0.7328   0.8080   0.8236   0.8459   0.8548   0.8652   0.9081   0.9533
     0.9624   1.0130   1.0224   1.0331   1.0856   1.1143   1.1170   1.1371
     1.1777   1.2180   1.2286   1.2723   1.2943   1.3312   1.4027   1.4069
     1.4263   1.4482   1.4760   1.5021   1.5403   1.5537   1.5982   1.5999
     1.6303   1.6590   1.6640   1.6753   1.6825   1.6967   1.7226   1.7629
     1.7634   1.8442   1.8861   1.9115   1.9349   1.9516   1.9607   1.9965
     2.0021   2.0265   2.0600   2.0723   2.1461   2.1615   2.1919   2.2974
     2.3063   2.3364   2.4673   2.6007   2.8938   3.0275   3.4909   3.5451
     3.5890   4.1369   4.5967   5.0126   5.1047   5.6415   5.6874   5.8344
     5.9012   6.0476   6.2229   6.6184   6.6847   6.8338   7.0209   7.0494

          k = 0.0000 0.4619 0.0000 ( 89430 PWs)   bands (ev):

   -18.7943 -10.4705  -6.3209  -5.7391  -5.5564  -5.0631  -4.9903  -4.8687
    -4.5804  -4.5757  -4.4231  -4.2234  -4.0749  -3.9351  -3.9059  -3.8754
    -3.8615  -3.7301  -3.6892  -3.6674  -3.6552  -3.6365  -3.5097  -3.4942
    -3.4880  -3.4623  -3.4399  -3.4075  -3.3481  -3.3058  -3.2883  -3.2839
    -3.1191  -3.0445  -3.0318  -3.0286  -3.0124  -2.9584  -2.8174  -2.7892
    -2.7855  -2.7715  -2.7352  -2.6798  -2.5919  -2.5357  -2.4940  -2.4772
    -2.4091  -2.3947  -2.3729  -2.3188  -2.3177  -2.2866  -2.2494  -2.2077
    -2.1683  -2.1283  -2.0869  -2.0753  -2.0192  -1.9680  -1.9310  -1.8894
    -1.8561  -1.8497  -1.8394  -1.7094  -1.6549  -1.6530  -1.6404  -1.6025
    -1.5222  -1.5079  -1.5014  -1.4463  -1.3803  -1.3692  -1.3148  -1.2912
    -1.2670  -1.2484  -1.2410  -1.2085  -1.1700  -1.1609  -1.1581  -1.1280
    -1.1209  -1.0921  -1.0893  -1.0605  -0.9911  -0.9908  -0.9631  -0.9484
    -0.9151  -0.8921  -0.8636  -0.8153  -0.8071  -0.7492  -0.7461  -0.6809
    -0.6713  -0.6506  -0.6219  -0.5935  -0.5732  -0.5406  -0.4831  -0.4802
    -0.4116  -0.3617  -0.3579  -0.2838  -0.2308  -0.1906  -0.1862  -0.1161
    -0.0879  -0.0538  -0.0413  -0.0314   0.0044   0.0226   0.0553   0.0656
     0.0758   0.1030   0.1073   0.1351   0.1671   0.2065   0.2389   0.2816
     0.3028   0.3219   0.3995   0.4197   0.5120   0.5168   0.5833   0.6387
     0.6605   0.7103   0.7633   0.8151   0.8290   0.8737   0.8782   0.8983
     0.9268   0.9433   0.9815   1.0144   1.0705   1.0726   1.1180   1.1283
     1.1585   1.1866   1.1920   1.2457   1.3489   1.3665   1.4051   1.4363
     1.4499   1.5029   1.5170   1.5615   1.5751   1.6005   1.6294   1.6858
     1.7105   1.7205   1.7608   1.8066   1.8180   1.8991   1.8993   1.9073
     1.9103   1.9523   1.9547   1.9799   2.0444   2.1264   2.1610   2.1724
     2.1805   2.2455   2.2744   2.3350   2.4085   2.8063   2.8969   2.9459
     3.1485   3.2165   3.2769   3.5910   3.7202   3.8699   3.9999   4.4219
     4.4499   4.4916   4.5926   4.6847   4.8217   4.9017   5.0844   5.1007
     5.3333   5.7136   5.8287   6.2482   6.3544   6.4653   6.7745   6.8687

          k = 0.2000-0.1155 0.0000 ( 89356 PWs)   bands (ev):

   -18.7944 -10.4711  -6.7351  -5.7356  -5.2692  -5.0501  -5.0024  -4.8723
    -4.5493  -4.5488  -4.3086  -4.2831  -4.2340  -4.2118  -4.1837  -4.0045
    -3.9829  -3.8474  -3.8396  -3.8256  -3.7762  -3.5344  -3.4438  -3.4368
    -3.3957  -3.3770  -3.3539  -3.2834  -3.2831  -3.2376  -3.2338  -3.2148
    -3.1563  -3.1389  -3.1249  -3.0288  -3.0276  -2.9962  -2.9909  -2.8870
    -2.8228  -2.7953  -2.7871  -2.7416  -2.6967  -2.5425  -2.5084  -2.4689
    -2.4546  -2.4186  -2.4035  -2.3530  -2.2610  -2.1878  -2.1663  -2.1428
    -2.1178  -2.0665  -2.0422  -1.9442  -1.9081  -1.8336  -1.7450  -1.7189
    -1.6813  -1.6475  -1.6123  -1.5830  -1.5763  -1.5361  -1.5128  -1.5050
    -1.4598  -1.4146  -1.3898  -1.3564  -1.3408  -1.3205  -1.2727  -1.2468
    -1.2344  -1.1767  -1.1681  -1.1645  -1.1262  -1.0745  -1.0705  -1.0568
    -1.0493  -0.9882  -0.9872  -0.9558  -0.9394  -0.9000  -0.8823  -0.8601
    -0.8228  -0.8188  -0.7803  -0.7683  -0.7479  -0.7300  -0.6939  -0.6797
    -0.6463  -0.6398  -0.5930  -0.5672  -0.5353  -0.5144  -0.4704  -0.4542
    -0.4402  -0.4334  -0.3852  -0.3797  -0.3294  -0.2915  -0.2077  -0.0987
    -0.0443  -0.0228  -0.0139   0.0421   0.0505   0.0656   0.1105   0.1507
     0.2030   0.2655   0.3114   0.3626   0.3702   0.3851   0.4070   0.4145
     0.4180   0.4996   0.5235   0.5957   0.6116   0.6136   0.6375   0.6571
     0.7324   0.8082   0.8236   0.8459   0.8550   0.8653   0.9080   0.9530
     0.9626   1.0130   1.0225   1.0330   1.0858   1.1145   1.1168   1.1370
     1.1778   1.2180   1.2283   1.2724   1.2942   1.3313   1.4027   1.4068
     1.4262   1.4480   1.4759   1.5018   1.5403   1.5537   1.5984   1.5999
     1.6303   1.6590   1.6640   1.6751   1.6825   1.6967   1.7222   1.7626
     1.7633   1.8440   1.8862   1.9114   1.9349   1.9516   1.9607   1.9963
     2.0025   2.0266   2.0604   2.0721   2.1461   2.1615   2.1915   2.2974
     2.3063   2.3364   2.4678   2.6007   2.8932   3.0278   3.4910   3.5448
     3.5890   4.1376   4.5962   5.0120   5.1054   5.6415   5.6874   5.8339
     5.9017   6.0477   6.2229   6.6184   6.6849   6.7646   6.8335   7.0219

          k = 0.2000 0.1155 0.0000 ( 89356 PWs)   bands (ev):

   -18.7944 -10.4711  -6.7351  -5.7356  -5.2695  -5.0550  -4.9925  -4.8772
    -4.5500  -4.5476  -4.3086  -4.2833  -4.2339  -4.2114  -4.1842  -4.0046
    -3.9832  -3.8472  -3.8387  -3.8255  -3.7767  -3.5345  -3.4444  -3.4359
    -3.3959  -3.3771  -3.3536  -3.2832  -3.2831  -3.2376  -3.2338  -3.2150
    -3.1562  -3.1388  -3.1250  -3.0290  -3.0273  -2.9962  -2.9909  -2.8871
    -2.8226  -2.7952  -2.7871  -2.7415  -2.6969  -2.5426  -2.5087  -2.4689
    -2.4545  -2.4186  -2.4036  -2.3528  -2.2612  -2.1876  -2.1660  -2.1426
    -2.1181  -2.0665  -2.0423  -1.9458  -1.9068  -1.8336  -1.7450  -1.7189
    -1.6815  -1.6475  -1.6122  -1.5830  -1.5761  -1.5361  -1.5128  -1.5051
    -1.4598  -1.4146  -1.3898  -1.3563  -1.3407  -1.3205  -1.2727  -1.2467
    -1.2343  -1.1767  -1.1681  -1.1644  -1.1263  -1.0744  -1.0705  -1.0569
    -1.0493  -0.9880  -0.9871  -0.9558  -0.9395  -0.9001  -0.8824  -0.8602
    -0.8228  -0.8187  -0.7803  -0.7683  -0.7479  -0.7300  -0.6939  -0.6796
    -0.6463  -0.6398  -0.5929  -0.5675  -0.5356  -0.5146  -0.4703  -0.4542
    -0.4400  -0.4336  -0.3852  -0.3797  -0.3305  -0.2904  -0.2076  -0.0986
    -0.0442  -0.0228  -0.0140   0.0422   0.0506   0.0656   0.1103   0.1509
     0.2027   0.2652   0.3115   0.3624   0.3702   0.3851   0.4070   0.4144
     0.4180   0.4994   0.5234   0.5956   0.6115   0.6136   0.6374   0.6571
     0.7327   0.8081   0.8237   0.8458   0.8549   0.8653   0.9081   0.9533
     0.9625   1.0130   1.0224   1.0331   1.0856   1.1144   1.1169   1.1370
     1.1777   1.2180   1.2285   1.2723   1.2943   1.3312   1.4026   1.4070
     1.4263   1.4482   1.4760   1.5020   1.5403   1.5537   1.5983   1.5999
     1.6303   1.6590   1.6640   1.6753   1.6825   1.6967   1.7225   1.7628
     1.7633   1.8441   1.8861   1.9115   1.9349   1.9516   1.9607   1.9964
     2.0022   2.0266   2.0601   2.0722   2.1460   2.1615   2.1918   2.2974
     2.3063   2.3364   2.4674   2.6007   2.8936   3.0276   3.4909   3.5450
     3.5890   4.1370   4.5966   5.0124   5.1048   5.6415   5.6874   5.8343
     5.9013   6.0476   6.2229   6.6184   6.6848   6.8337   7.0217   7.0490

          k = 0.2000 0.3464 0.0000 ( 89384 PWs)   bands (ev):

   -18.7943 -10.4706  -6.4548  -5.6546  -5.2803  -5.2305  -5.0479  -4.9460
    -4.9009  -4.1407  -4.1326  -4.1247  -4.1208  -4.0716  -4.0533  -4.0398
    -3.9574  -3.9452  -3.9183  -3.5881  -3.5609  -3.5547  -3.5414  -3.4936
    -3.4698  -3.3877  -3.3359  -3.3053  -3.3004  -3.2679  -3.2208  -3.1669
    -3.1563  -3.1444  -3.1187  -3.0693  -3.0439  -3.0172  -2.9973  -2.9201
    -2.8777  -2.6819  -2.6246  -2.5845  -2.5803  -2.5310  -2.5162  -2.4816
    -2.4740  -2.4304  -2.4088  -2.3194  -2.2686  -2.2251  -2.1980  -2.1567
    -2.1217  -2.0942  -2.0658  -2.0559  -1.9946  -1.9888  -1.9371  -1.8225
    -1.7979  -1.7725  -1.7367  -1.7106  -1.6814  -1.6563  -1.6362  -1.6052
    -1.5696  -1.4566  -1.4385  -1.4198  -1.3986  -1.3805  -1.3553  -1.3037
    -1.2784  -1.2654  -1.2204  -1.1470  -1.1316  -1.1223  -1.0994  -1.0839
    -1.0757  -1.0600  -1.0298  -1.0120  -0.9839  -0.9726  -0.9265  -0.8793
    -0.8511  -0.8475  -0.7944  -0.7777  -0.7692  -0.7536  -0.7149  -0.7062
    -0.6910  -0.6706  -0.6648  -0.6490  -0.6030  -0.5934  -0.5361  -0.5240
    -0.4636  -0.4197  -0.4166  -0.3661  -0.3450  -0.2884  -0.2652  -0.2236
    -0.1348  -0.1238  -0.0091   0.0000   0.0222   0.0438   0.0806   0.1078
     0.1200   0.1402   0.1470   0.1849   0.2109   0.2721   0.2883   0.3667
     0.3932   0.4252   0.4587   0.5042   0.5242   0.5813   0.6057   0.6616
     0.6856   0.7071   0.7390   0.7536   0.8050   0.8591   0.8833   0.9273
     0.9468   0.9691   0.9815   1.0018   1.0060   1.0304   1.0485   1.0552
     1.0835   1.1693   1.1964   1.2895   1.3509   1.3938   1.4429   1.4951
     1.5453   1.5572   1.5739   1.6285   1.6593   1.6901   1.7109   1.7152
     1.7307   1.7541   1.7628   1.7749   1.8101   1.8202   1.8533   1.8795
     1.9264   1.9546   1.9751   1.9825   2.0065   2.0684   2.0929   2.1757
     2.2014   2.2515   2.2762   2.3118   2.3767   2.4122   2.5075   2.6070
     2.9124   2.9999   3.0855   3.4808   3.5327   3.6487   3.7687   4.2309
     4.2989   4.3545   4.4715   4.4987   4.8843   5.2042   5.6331   5.7185
     5.8266   5.9154   6.2515   6.3237   6.3521   6.4321   6.4902   6.5974

          k = 0.2000-0.5774 0.0000 ( 89386 PWs)   bands (ev):

   -18.7943 -10.4703  -5.9621  -5.9164  -5.5652  -5.3051  -5.0062  -4.9443
    -4.6192  -4.5593  -4.1331  -4.1155  -3.9938  -3.9658  -3.8534  -3.8480
    -3.7495  -3.7449  -3.6828  -3.6137  -3.5957  -3.5886  -3.5779  -3.5727
    -3.4975  -3.4503  -3.4109  -3.3934  -3.3827  -3.3716  -3.3163  -3.2091
    -3.1426  -3.0855  -3.0629  -3.0368  -3.0222  -2.9894  -2.9274  -2.8835
    -2.8462  -2.7697  -2.7493  -2.6054  -2.5899  -2.5595  -2.4815  -2.4678
    -2.3999  -2.3810  -2.3135  -2.2823  -2.2285  -2.2024  -2.1610  -2.1466
    -2.1123  -2.0761  -2.0542  -2.0256  -1.9838  -1.9692  -1.9560  -1.9270
    -1.9160  -1.8887  -1.8567  -1.8304  -1.8061  -1.7299  -1.6924  -1.6435
    -1.6355  -1.5667  -1.5083  -1.4819  -1.4720  -1.4443  -1.4400  -1.3882
    -1.3598  -1.3034  -1.2978  -1.2503  -1.2136  -1.1939  -1.1885  -1.1163
    -1.0803  -1.0587  -1.0529  -1.0350  -0.9620  -0.9209  -0.9156  -0.8753
    -0.8524  -0.8307  -0.8159  -0.7868  -0.7797  -0.7610  -0.7428  -0.7144
    -0.6862  -0.6709  -0.6574  -0.6444  -0.6293  -0.6090  -0.5999  -0.5631
    -0.5473  -0.5389  -0.3995  -0.3336  -0.3152  -0.3120  -0.2158  -0.1959
    -0.1352  -0.1015  -0.0807  -0.0512  -0.0196   0.0000   0.0054   0.0354
     0.0644   0.0890   0.1239   0.1720   0.2116   0.2517   0.2644   0.2843
     0.3240   0.3751   0.4599   0.5166   0.5176   0.5824   0.6040   0.6301
     0.6468   0.6802   0.6988   0.7190   0.7240   0.7852   0.8306   0.8472
     0.8626   0.9118   0.9265   0.9471   0.9856   1.0278   1.0528   1.1342
     1.1584   1.2257   1.2736   1.3190   1.3938   1.4002   1.4383   1.4808
     1.5144   1.5201   1.5912   1.6568   1.6846   1.6917   1.7369   1.7527
     1.7600   1.7874   1.8173   1.8475   1.8882   1.9077   1.9139   1.9475
     1.9692   1.9785   2.0289   2.0605   2.1421   2.1635   2.1713   2.2050
     2.2177   2.2537   2.2737   2.3647   2.4741   2.5963   3.3238   3.3327
     3.5521   3.5729   3.6553   3.7265   3.7860   3.8904   4.2382   4.3356
     4.3826   4.7841   4.8238   4.9081   4.9855   5.0555   5.1793   5.2543
     5.3008   5.4429   5.7035   5.8199   6.0200   6.2956   6.4226   6.4607

          k = 0.2000-0.3464 0.0000 ( 89384 PWs)   bands (ev):

   -18.7943 -10.4706  -6.4548  -5.6545  -5.2796  -5.2307  -5.0472  -4.9537
    -4.8943  -4.1407  -4.1320  -4.1247  -4.1208  -4.0719  -4.0533  -4.0398
    -3.9573  -3.9450  -3.9187  -3.5885  -3.5610  -3.5547  -3.5413  -3.4937
    -3.4698  -3.3870  -3.3361  -3.3051  -3.3005  -3.2688  -3.2207  -3.1670
    -3.1562  -3.1443  -3.1187  -3.0693  -3.0442  -3.0173  -2.9972  -2.9201
    -2.8780  -2.6821  -2.6242  -2.5844  -2.5806  -2.5308  -2.5161  -2.4814
    -2.4739  -2.4303  -2.4088  -2.3195  -2.2686  -2.2250  -2.1983  -2.1566
    -2.1216  -2.0940  -2.0651  -2.0559  -1.9946  -1.9891  -1.9374  -1.8225
    -1.7978  -1.7726  -1.7367  -1.7105  -1.6814  -1.6563  -1.6362  -1.6052
    -1.5695  -1.4566  -1.4385  -1.4199  -1.3988  -1.3804  -1.3553  -1.3039
    -1.2785  -1.2654  -1.2206  -1.1473  -1.1317  -1.1223  -1.0993  -1.0839
    -1.0758  -1.0601  -1.0299  -1.0120  -0.9839  -0.9725  -0.9265  -0.8793
    -0.8511  -0.8475  -0.7944  -0.7775  -0.7694  -0.7535  -0.7148  -0.7062
    -0.6909  -0.6706  -0.6648  -0.6489  -0.6029  -0.5934  -0.5362  -0.5239
    -0.4636  -0.4196  -0.4167  -0.3661  -0.3449  -0.2881  -0.2655  -0.2236
    -0.1348  -0.1238  -0.0092   0.0000   0.0221   0.0439   0.0806   0.1076
     0.1200   0.1400   0.1472   0.1849   0.2111   0.2721   0.2885   0.3667
     0.3932   0.4252   0.4587   0.5043   0.5241   0.5813   0.6057   0.6616
     0.6857   0.7072   0.7390   0.7537   0.8050   0.8594   0.8833   0.9272
     0.9469   0.9692   0.9815   1.0019   1.0060   1.0304   1.0486   1.0552
     1.0836   1.1693   1.1964   1.2892   1.3510   1.3935   1.4428   1.4951
     1.5452   1.5574   1.5740   1.6283   1.6593   1.6901   1.7109   1.7152
     1.7308   1.7541   1.7628   1.7749   1.8100   1.8202   1.8533   1.8795
     1.9263   1.9545   1.9750   1.9825   2.0063   2.0688   2.0931   2.1757
     2.2013   2.2514   2.2762   2.3118   2.3767   2.4123   2.5072   2.6068
     2.9124   2.9999   3.0854   3.4807   3.5328   3.6482   3.7692   4.2309
     4.2990   4.3545   4.4716   4.4987   4.8841   5.2042   5.6331   5.7184
     5.8271   5.9154   6.2518   6.3238   6.3522   6.4324   6.4900   6.5968

          k = 0.4000-0.2309 0.0000 ( 89430 PWs)   bands (ev):

   -18.7943 -10.4705  -6.3209  -5.7388  -5.5565  -5.0582  -4.9996  -4.8642
    -4.5793  -4.5773  -4.4223  -4.2234  -4.0747  -3.9352  -3.9059  -3.8756
    -3.8611  -3.7309  -3.6889  -3.6677  -3.6552  -3.6364  -3.5098  -3.4941
    -3.4878  -3.4626  -3.4400  -3.4075  -3.3482  -3.3058  -3.2881  -3.2839
    -3.1195  -3.0445  -3.0321  -3.0287  -3.0123  -2.9583  -2.8174  -2.7892
    -2.7857  -2.7719  -2.7351  -2.6794  -2.5914  -2.5359  -2.4938  -2.4777
    -2.4088  -2.3948  -2.3730  -2.3189  -2.3179  -2.2864  -2.2492  -2.2072
    -2.1693  -2.1281  -2.0869  -2.0757  -2.0190  -1.9680  -1.9309  -1.8892
    -1.8563  -1.8497  -1.8390  -1.7093  -1.6551  -1.6532  -1.6405  -1.6025
    -1.5221  -1.5078  -1.5015  -1.4464  -1.3803  -1.3691  -1.3148  -1.2911
    -1.2669  -1.2486  -1.2410  -1.2086  -1.1700  -1.1610  -1.1582  -1.1281
    -1.1209  -1.0924  -1.0893  -1.0606  -0.9909  -0.9907  -0.9632  -0.9484
    -0.9150  -0.8918  -0.8634  -0.8154  -0.8073  -0.7492  -0.7459  -0.6808
    -0.6711  -0.6505  -0.6217  -0.5933  -0.5739  -0.5406  -0.4830  -0.4801
    -0.4116  -0.3612  -0.3581  -0.2834  -0.2307  -0.1907  -0.1861  -0.1160
    -0.0882  -0.0537  -0.0412  -0.0318   0.0045   0.0227   0.0555   0.0654
     0.0757   0.1029   0.1073   0.1351   0.1670   0.2072   0.2387   0.2816
     0.3027   0.3219   0.3993   0.4196   0.5120   0.5173   0.5834   0.6388
     0.6606   0.7103   0.7635   0.8152   0.8290   0.8738   0.8784   0.8983
     0.9271   0.9432   0.9816   1.0144   1.0706   1.0727   1.1180   1.1282
     1.1586   1.1866   1.1920   1.2456   1.3489   1.3666   1.4052   1.4362
     1.4496   1.5026   1.5167   1.5615   1.5750   1.6002   1.6295   1.6856
     1.7105   1.7205   1.7609   1.8066   1.8179   1.8991   1.8993   1.9073
     1.9103   1.9522   1.9548   1.9799   2.0440   2.1263   2.1612   2.1724
     2.1812   2.2452   2.2739   2.3348   2.4085   2.8062   2.8960   2.9462
     3.1484   3.2165   3.2769   3.5910   3.7205   3.8698   4.0001   4.4219
     4.4498   4.4915   4.5926   4.6847   4.8218   4.9011   5.0848   5.1006
     5.3340   5.7136   5.8287   6.2482   6.3547   6.4657   6.7742   6.8687

          k = 0.4000-0.0000 0.0000 ( 89384 PWs)   bands (ev):

   -18.7943 -10.4706  -6.4548  -5.6545  -5.2798  -5.2307  -5.0472  -4.9535
    -4.8944  -4.1407  -4.1319  -4.1247  -4.1208  -4.0719  -4.0533  -4.0398
    -3.9574  -3.9450  -3.9187  -3.5884  -3.5611  -3.5547  -3.5414  -3.4937
    -3.4698  -3.3868  -3.3361  -3.3051  -3.3005  -3.2689  -3.2207  -3.1669
    -3.1563  -3.1443  -3.1187  -3.0693  -3.0441  -3.0173  -2.9972  -2.9201
    -2.8781  -2.6821  -2.6242  -2.5846  -2.5805  -2.5308  -2.5161  -2.4813
    -2.4740  -2.4303  -2.4088  -2.3194  -2.2686  -2.2249  -2.1983  -2.1566
    -2.1218  -2.0940  -2.0651  -2.0558  -1.9946  -1.9891  -1.9372  -1.8225
    -1.7978  -1.7725  -1.7367  -1.7106  -1.6815  -1.6563  -1.6361  -1.6053
    -1.5695  -1.4566  -1.4385  -1.4199  -1.3988  -1.3803  -1.3553  -1.3039
    -1.2785  -1.2655  -1.2207  -1.1473  -1.1317  -1.1223  -1.0992  -1.0839
    -1.0757  -1.0602  -1.0300  -1.0120  -0.9838  -0.9725  -0.9265  -0.8793
    -0.8511  -0.8475  -0.7944  -0.7774  -0.7694  -0.7535  -0.7147  -0.7061
    -0.6908  -0.6705  -0.6648  -0.6488  -0.6029  -0.5934  -0.5363  -0.5239
    -0.4636  -0.4195  -0.4166  -0.3661  -0.3449  -0.2879  -0.2656  -0.2237
    -0.1348  -0.1239  -0.0091   0.0001   0.0221   0.0438   0.0806   0.1076
     0.1201   0.1400   0.1472   0.1848   0.2112   0.2721   0.2886   0.3666
     0.3932   0.4253   0.4587   0.5045   0.5240   0.5813   0.6057   0.6616
     0.6857   0.7072   0.7390   0.7537   0.8050   0.8594   0.8834   0.9271
     0.9469   0.9692   0.9815   1.0019   1.0060   1.0304   1.0486   1.0552
     1.0837   1.1693   1.1964   1.2891   1.3510   1.3935   1.4428   1.4950
     1.5452   1.5574   1.5740   1.6283   1.6592   1.6901   1.7109   1.7152
     1.7308   1.7541   1.7628   1.7749   1.8100   1.8202   1.8533   1.8795
     1.9264   1.9544   1.9750   1.9825   2.0062   2.0690   2.0932   2.1757
     2.2013   2.2514   2.2762   2.3118   2.3766   2.4123   2.5070   2.6068
     2.9123   2.9999   3.0854   3.4807   3.5328   3.6481   3.7693   4.2309
     4.2990   4.3545   4.4716   4.4986   4.8841   5.2043   5.6331   5.7183
     5.8272   5.9154   6.2517   6.3238   6.3521   6.4324   6.4900   6.5972

          k = 0.4000 0.2309 0.0000 ( 89430 PWs)   bands (ev):

   -18.7943 -10.4705  -6.3209  -5.7390  -5.5564  -5.0633  -4.9899  -4.8688
    -4.5803  -4.5757  -4.4231  -4.2235  -4.0749  -3.9351  -3.9059  -3.8754
    -3.8615  -3.7301  -3.6892  -3.6674  -3.6553  -3.6365  -3.5097  -3.4942
    -3.4880  -3.4623  -3.4399  -3.4076  -3.3481  -3.3058  -3.2882  -3.2839
    -3.1191  -3.0445  -3.0317  -3.0287  -3.0124  -2.9584  -2.8174  -2.7893
    -2.7855  -2.7716  -2.7352  -2.6798  -2.5920  -2.5357  -2.4940  -2.4773
    -2.4091  -2.3947  -2.3729  -2.3189  -2.3177  -2.2866  -2.2493  -2.2077
    -2.1684  -2.1284  -2.0869  -2.0755  -2.0192  -1.9679  -1.9309  -1.8894
    -1.8563  -1.8497  -1.8393  -1.7094  -1.6549  -1.6530  -1.6405  -1.6025
    -1.5221  -1.5079  -1.5014  -1.4464  -1.3803  -1.3691  -1.3147  -1.2911
    -1.2670  -1.2485  -1.2410  -1.2085  -1.1700  -1.1609  -1.1581  -1.1280
    -1.1209  -1.0922  -1.0893  -1.0605  -0.9911  -0.9908  -0.9631  -0.9484
    -0.9151  -0.8921  -0.8636  -0.8153  -0.8071  -0.7491  -0.7460  -0.6809
    -0.6712  -0.6505  -0.6218  -0.5934  -0.5733  -0.5407  -0.4831  -0.4802
    -0.4116  -0.3616  -0.3579  -0.2836  -0.2308  -0.1906  -0.1862  -0.1160
    -0.0880  -0.0538  -0.0413  -0.0316   0.0045   0.0226   0.0554   0.0656
     0.0758   0.1030   0.1073   0.1352   0.1670   0.2066   0.2389   0.2815
     0.3029   0.3219   0.3994   0.4197   0.5120   0.5169   0.5834   0.6387
     0.6605   0.7103   0.7634   0.8152   0.8290   0.8737   0.8782   0.8983
     0.9268   0.9432   0.9816   1.0144   1.0705   1.0726   1.1180   1.1283
     1.1584   1.1866   1.1920   1.2457   1.3489   1.3665   1.4051   1.4363
     1.4498   1.5028   1.5169   1.5615   1.5750   1.6005   1.6294   1.6857
     1.7105   1.7205   1.7608   1.8066   1.8180   1.8991   1.8993   1.9073
     1.9103   1.9522   1.9547   1.9799   2.0443   2.1264   2.1611   2.1724
     2.1806   2.2454   2.2742   2.3350   2.4085   2.8063   2.8967   2.9460
     3.1485   3.2165   3.2768   3.5910   3.7203   3.8699   4.0000   4.4219
     4.4499   4.4916   4.5926   4.6847   4.8217   4.9015   5.0844   5.1007
     5.3335   5.7136   5.8287   6.2483   6.3544   6.4653   6.7744   6.8687

          k = 0.4000-0.6928 0.0000 ( 89386 PWs)   bands (ev):

   -18.7943 -10.4703  -5.9620  -5.9166  -5.5652  -5.3050  -5.0066  -4.9439
    -4.6193  -4.5592  -4.1331  -4.1155  -3.9938  -3.9658  -3.8534  -3.8479
    -3.7495  -3.7449  -3.6830  -3.6137  -3.5957  -3.5886  -3.5780  -3.5727
    -3.4974  -3.4503  -3.4109  -3.3934  -3.3827  -3.3716  -3.3163  -3.2091
    -3.1426  -3.0856  -3.0629  -3.0369  -3.0222  -2.9895  -2.9273  -2.8835
    -2.8462  -2.7697  -2.7493  -2.6054  -2.5899  -2.5595  -2.4814  -2.4678
    -2.3999  -2.3810  -2.3135  -2.2824  -2.2284  -2.2025  -2.1611  -2.1466
    -2.1124  -2.0761  -2.0542  -2.0255  -1.9837  -1.9692  -1.9560  -1.9269
    -1.9160  -1.8887  -1.8566  -1.8306  -1.8060  -1.7300  -1.6923  -1.6435
    -1.6354  -1.5667  -1.5084  -1.4819  -1.4719  -1.4444  -1.4400  -1.3882
    -1.3598  -1.3035  -1.2978  -1.2503  -1.2136  -1.1938  -1.1884  -1.1164
    -1.0803  -1.0587  -1.0530  -1.0350  -0.9620  -0.9208  -0.9156  -0.8754
    -0.8525  -0.8308  -0.8158  -0.7868  -0.7797  -0.7610  -0.7428  -0.7144
    -0.6862  -0.6709  -0.6573  -0.6445  -0.6293  -0.6091  -0.5998  -0.5631
    -0.5472  -0.5389  -0.3994  -0.3336  -0.3152  -0.3121  -0.2157  -0.1960
    -0.1352  -0.1015  -0.0807  -0.0512  -0.0195   0.0001   0.0054   0.0353
     0.0644   0.0889   0.1240   0.1720   0.2116   0.2516   0.2644   0.2843
     0.3240   0.3753   0.4598   0.5166   0.5175   0.5824   0.6039   0.6302
     0.6468   0.6802   0.6989   0.7190   0.7240   0.7853   0.8307   0.8471
     0.8627   0.9118   0.9265   0.9472   0.9855   1.0277   1.0528   1.1342
     1.1582   1.2257   1.2735   1.3190   1.3938   1.4002   1.4382   1.4808
     1.5144   1.5200   1.5912   1.6567   1.6846   1.6917   1.7368   1.7527
     1.7600   1.7873   1.8173   1.8475   1.8882   1.9077   1.9139   1.9475
     1.9692   1.9785   2.0289   2.0604   2.1421   2.1636   2.1713   2.2052
     2.2177   2.2539   2.2737   2.3646   2.4740   2.5960   3.3238   3.3327
     3.5522   3.5729   3.6553   3.7265   3.7859   3.8903   4.2382   4.3356
     4.3826   4.7842   4.8238   4.9082   4.9855   5.0555   5.1794   5.2542
     5.3008   5.4430   5.7035   5.8199   6.0200   6.2957   6.4226   6.4607

          k = 0.4000-0.4619 0.0000 ( 89386 PWs)   bands (ev):

   -18.7943 -10.4703  -5.9619  -5.9165  -5.5653  -5.3053  -4.9977  -4.9543
    -4.6165  -4.5598  -4.1334  -4.1157  -3.9937  -3.9657  -3.8533  -3.8480
    -3.7497  -3.7449  -3.6827  -3.6136  -3.5958  -3.5886  -3.5779  -3.5727
    -3.4976  -3.4507  -3.4109  -3.3934  -3.3828  -3.3717  -3.3161  -3.2090
    -3.1427  -3.0858  -3.0629  -3.0376  -3.0223  -2.9893  -2.9273  -2.8837
    -2.8457  -2.7698  -2.7492  -2.6056  -2.5898  -2.5591  -2.4813  -2.4680
    -2.3994  -2.3811  -2.3138  -2.2825  -2.2283  -2.2025  -2.1611  -2.1466
    -2.1132  -2.0759  -2.0541  -2.0254  -1.9837  -1.9689  -1.9561  -1.9268
    -1.9159  -1.8885  -1.8564  -1.8311  -1.8059  -1.7301  -1.6920  -1.6434
    -1.6355  -1.5666  -1.5083  -1.4819  -1.4719  -1.4449  -1.4402  -1.3883
    -1.3599  -1.3036  -1.2978  -1.2503  -1.2135  -1.1939  -1.1878  -1.1165
    -1.0802  -1.0587  -1.0530  -1.0351  -0.9621  -0.9207  -0.9153  -0.8755
    -0.8524  -0.8308  -0.8157  -0.7869  -0.7797  -0.7610  -0.7428  -0.7143
    -0.6863  -0.6709  -0.6573  -0.6445  -0.6293  -0.6091  -0.5998  -0.5630
    -0.5471  -0.5390  -0.3995  -0.3337  -0.3152  -0.3121  -0.2156  -0.1958
    -0.1353  -0.1013  -0.0807  -0.0512  -0.0196   0.0003   0.0052   0.0352
     0.0644   0.0889   0.1240   0.1721   0.2116   0.2517   0.2644   0.2842
     0.3240   0.3757   0.4596   0.5166   0.5175   0.5824   0.6040   0.6303
     0.6467   0.6802   0.6988   0.7190   0.7240   0.7857   0.8307   0.8471
     0.8627   0.9119   0.9264   0.9472   0.9856   1.0279   1.0530   1.1345
     1.1578   1.2258   1.2734   1.3191   1.3937   1.4002   1.4377   1.4809
     1.5144   1.5200   1.5913   1.6566   1.6846   1.6917   1.7369   1.7527
     1.7601   1.7873   1.8172   1.8475   1.8882   1.9077   1.9138   1.9475
     1.9692   1.9785   2.0288   2.0602   2.1421   2.1637   2.1713   2.2056
     2.2177   2.2544   2.2736   2.3645   2.4735   2.5955   3.3238   3.3327
     3.5525   3.5729   3.6552   3.7263   3.7859   3.8902   4.2381   4.3356
     4.3826   4.7844   4.8236   4.9083   4.9856   5.0554   5.1794   5.2542
     5.3009   5.4428   5.7036   5.8200   6.0199   6.2960   6.4227   6.4606

     the Fermi energy is     1.9592 ev

!    total energy              =  -27819.37169963 Ry

     total all-electron energy =  -1326872.748100 Ry
     estimated scf accuracy    <       0.00000053 Ry
     smearing contrib. (-TS)   =       0.00243412 Ry
     internal energy E=F+TS    =  -27819.37413375 Ry

     The total energy is F=E-TS. E is the sum of the following terms:
     one-electron contribution =  -27452.38616457 Ry
     hartree contribution      =   14030.87295115 Ry
     xc contribution           =    -904.94360493 Ry
     ewald contribution        =   11997.75972965 Ry
     one-center paw contrib.   =  -25490.67704506 Ry

     convergence has been achieved in  20 iterations

     negative rho (up, down):  1.273E-02 0.000E+00

     Forces acting on atoms (cartesian axes, Ry/au):

     atom    1 type  1   force =    -0.00093255   -0.00056823   -0.00308407
     atom    2 type  1   force =     0.00093109   -0.00053839   -0.00309449
     atom    3 type  1   force =     0.00000622    0.00063008   -0.00542031
     atom    4 type  1   force =     0.00002538    0.00105257   -0.00311562
     atom    5 type  1   force =     0.00089530    0.00051338   -0.00436290
     atom    6 type  1   force =    -0.00091913    0.00048748   -0.00437980
     atom    7 type  1   force =     0.00059851   -0.00031894   -0.00544885
     atom    8 type  1   force =    -0.00003261   -0.00102668   -0.00436927
     atom    9 type  1   force =    -0.00055994   -0.00030045   -0.00547449
     atom   10 type  1   force =     0.00001005   -0.00001502    0.00114651
     atom   11 type  1   force =     0.00107699   -0.00229645    0.00165268
     atom   12 type  1   force =    -0.00110359   -0.00231019    0.00165177
     atom   13 type  1   force =    -0.00141600    0.00207061    0.00162518
     atom   14 type  1   force =    -0.00004845   -0.00001120   -0.00080677
     atom   15 type  1   force =     0.00143726    0.00206261    0.00167082
     atom   16 type  1   force =    -0.00254091    0.00021566    0.00161814
     atom   17 type  1   force =     0.00252183    0.00025449    0.00166583
     atom   18 type  1   force =     0.00000707    0.00004034    0.02439624
     atom   19 type  1   force =    -0.00001212    0.00000217   -0.00014275
     atom   20 type  1   force =     0.00000965    0.00000055   -0.00013052
     atom   21 type  1   force =     0.00000966   -0.00001447    0.00007446
     atom   22 type  1   force =    -0.00000700    0.00007156   -0.00017661
     atom   23 type  1   force =     0.00000539   -0.00000474    0.00007386
     atom   24 type  1   force =     0.00000589   -0.00001023    0.00005678
     atom   25 type  1   force =    -0.00006735   -0.00005480   -0.00016752
     atom   26 type  1   force =     0.00000093   -0.00003581   -0.00013561
     atom   27 type  1   force =     0.00007606   -0.00006218   -0.00017799
     atom   28 type  1   force =    -0.00016688   -0.00009946   -0.00027170
     atom   29 type  1   force =     0.00030977   -0.00019759   -0.00038819
     atom   30 type  1   force =     0.00000333    0.00003896    0.00026228
     atom   31 type  1   force =    -0.00001175    0.00019910   -0.00026966
     atom   32 type  1   force =    -0.00003042   -0.00003485    0.00050098
     atom   33 type  1   force =     0.00003587   -0.00003285    0.00050442
     atom   34 type  1   force =     0.00005177   -0.00002728    0.00024203
     atom   35 type  1   force =     0.00000695    0.00003774    0.00049787
     atom   36 type  1   force =    -0.00005320   -0.00003959    0.00025990
     atom   37 type  2   force =    -0.00107329    0.00063913    0.00248350
     atom   38 type  3   force =    -0.00245278    0.00156152    0.00527905
     atom   39 type  4   force =     0.00036355    0.00011834   -0.00051087
     atom   40 type  4   force =     0.00011711   -0.00033925   -0.00041203
     atom   41 type  4   force =     0.00292233   -0.00165765   -0.00332227

     Total force =     0.008291     Total SCF correction =     0.002101
     SCF correction compared to forces is large: reduce conv_thr to get better values

     negative rho (up, down):  1.273E-02 0.000E+00

     negative rho (up, down):  1.273E-02 0.000E+00

     negative rho (up, down):  1.273E-02 0.000E+00

     negative rho (up, down):  1.273E-02 0.000E+00

     negative rho (up, down):  1.273E-02 0.000E+00

     negative rho (up, down):  1.273E-02 0.000E+00

     negative rho (up, down):  1.273E-02 0.000E+00

     negative rho (up, down):  1.273E-02 0.000E+00

     negative rho (up, down):  1.273E-02 0.000E+00

     negative rho (up, down):  1.273E-02 0.000E+00

     negative rho (up, down):  1.273E-02 0.000E+00

     negative rho (up, down):  1.273E-02 0.000E+00

     negative rho (up, down):  1.273E-02 0.000E+00

     negative rho (up, down):  1.273E-02 0.000E+00

     negative rho (up, down):  1.273E-02 0.000E+00

     negative rho (up, down):  1.273E-02 0.000E+00

     negative rho (up, down):  1.273E-02 0.000E+00

     negative rho (up, down):  1.273E-02 0.000E+00

     negative rho (up, down):  1.273E-02 0.000E+00

     negative rho (up, down):  1.273E-02 0.000E+00

     negative rho (up, down):  1.273E-02 0.000E+00

     negative rho (up, down):  1.273E-02 0.000E+00

     negative rho (up, down):  1.273E-02 0.000E+00

     negative rho (up, down):  1.273E-02 0.000E+00

     negative rho (up, down):  1.273E-02 0.000E+00

     negative rho (up, down):  1.273E-02 0.000E+00

     negative rho (up, down):  1.273E-02 0.000E+00

     negative rho (up, down):  1.273E-02 0.000E+00

     negative rho (up, down):  1.273E-02 0.000E+00

     negative rho (up, down):  1.273E-02 0.000E+00

     negative rho (up, down):  1.273E-02 0.000E+00

     negative rho (up, down):  1.273E-02 0.000E+00

     negative rho (up, down):  1.273E-02 0.000E+00

     negative rho (up, down):  1.273E-02 0.000E+00
 BEEFens 2000 ensemble energies
             -0.605560819610043E+02
             -0.359858182498013E+01
             -0.158082315619164E+02
              0.428404048425034E+02
             -0.220790016651142E+02
             -0.205074803231233E+02
             -0.351371846452182E+02
             -0.863021861963208E+02
             -0.464760113686324E+02
             -0.472175992425964E+02
             -0.368477258960133E+02
              0.226050153737551E+01
              0.406385740755644E+01
              0.763934844989811E+01
              0.264171207000169E+01
              0.474124058512220E+02
             -0.208514345189536E+02
             -0.230315790929699E+02
              0.192465710048854E+02
             -0.112197216377255E+03
              0.535178182786828E+02
             -0.289515933799278E+02
             -0.332073585997511E+01
             -0.113949054572376E+02
             -0.885958207297449E+01
             -0.464681154983083E+01
              0.881330918955894E+02
             -0.186425268760499E+02
             -0.899988647654970E+01
             -0.517403038324992E+02
              0.814605732599664E+02
             -0.187399379531675E+02
             -0.374127346495618E+02
              0.249054685979194E+02
             -0.283030539393195E+01
              0.163277484186773E+02
             -0.487966033455649E+01
              0.108301446990360E+02
              0.287417853522308E+02
             -0.103111784044107E+03
              0.557403451108135E+02
              0.142250662521721E+02
             -0.168064652792657E+01
             -0.361037650048640E+02
              0.123000381312118E+02
             -0.146165821231021E+02
              0.397278988743753E+02
              0.364291211673096E+02
             -0.307952915194296E+02
             -0.274411585781842E+02
             -0.327730750399476E+02
             -0.351508396673776E+02
              0.135805973692965E+02
             -0.489946580831435E+02
              0.115175544151499E+02
              0.622097617874248E+02
              0.633732972764686E+02
              0.355314442037364E+02
              0.153948447375894E+02
              0.269843053333502E+02
              0.889870309028749E+02
              0.212476440676908E+02
             -0.547594556941555E+02
             -0.157118891388545E+02
             -0.235308952602431E+02
              0.628712660097066E+02
             -0.772327675086311E+02
             -0.670723733344497E+02
             -0.258629425242617E+02
             -0.642275650112106E+01
             -0.470403664902310E+02
              0.270233095816877E+02
              0.798663657309851E+01
              0.864075040134134E+01
             -0.396546726826064E+02
             -0.346106412119605E+02
             -0.540753043660281E+02
              0.389818556907146E+02
             -0.295139416864071E+02
              0.264628688554490E+02
             -0.714026471245770E+01
             -0.317613605969697E+02
             -0.575396301836781E+02
             -0.176393017822628E+02
             -0.901310749762445E+01
             -0.124460040699864E+02
              0.411632183824331E+02
              0.681178304379451E+02
             -0.384692007980854E+02
             -0.793210924431783E+02
             -0.219427580800521E+02
              0.111317794249614E+03
             -0.591386764860708E+02
              0.355623207275622E+02
             -0.954694829617802E+01
             -0.662338026578533E+02
              0.254025412557295E+02
              0.397774185626634E+02
             -0.198461220446372E+02
              0.399870492625921E+02
             -0.295674657367749E+02
             -0.476774299364034E+02
              0.863791742371857E+02
              0.453039005002737E+02
              0.336204179525513E+02
              0.146167730625914E+02
              0.205061451854845E+02
              0.855166740582598E+02
             -0.256387877000834E+02
              0.787753463954351E+01
             -0.142172238670740E+03
              0.180952702418212E+02
             -0.715118246381053E+02
              0.150679562376973E+02
              0.204154079091059E+02
             -0.332184358566140E+02
             -0.556310367250940E+02
              0.653155891381141E+01
             -0.303574510951086E+02
              0.306956441604083E+02
             -0.529076402882490E+02
              0.173876404018552E+01
             -0.356281002145068E+02
             -0.422188899360725E+01
             -0.105047496785400E+01
              0.180544115437143E+02
              0.142256330079351E+01
             -0.651103478385755E+01
              0.589021209845276E+02
              0.906523935164361E+02
              0.483200729625702E+02
              0.829439113708180E+02
             -0.114905793049344E+02
              0.142797364359712E+02
              0.540147229504877E+02
             -0.111127736992042E+02
             -0.734290088565605E+02
             -0.383087763243803E+02
             -0.520830265308790E+02
             -0.276174667477762E+02
              0.326840229846379E+02
             -0.116553545330349E+03
             -0.186981778730662E+02
              0.413061365773648E+02
             -0.385594755195999E+02
             -0.364842033835918E+02
              0.543047579864461E+02
              0.399851477614624E+02
             -0.353479610578802E+02
              0.136899318346288E+02
             -0.272744849622345E+02
              0.342421519408957E+02
              0.444697059413545E+01
              0.211192271479111E+02
             -0.883374564373895E+02
             -0.479370251339939E+02
             -0.994256834006308E+01
              0.323166130824495E+01
             -0.365948019205284E+02
              0.105822110359838E+03
             -0.230857535932494E+02
             -0.398305141743587E+02
              0.388212882151620E+02
             -0.493522420204562E+02
             -0.362566560021370E+02
              0.324241081441639E+02
              0.124270383822485E+02
              0.164461407873287E+02
              0.116151975403257E+02
             -0.132663639176628E+02
              0.225209255346006E+02
              0.589311340180360E+02
             -0.311248438909970E+02
              0.162104097374722E+02
              0.932942176493496E+02
              0.340096138329319E+02
             -0.729060643119931E+01
             -0.188019666936092E+02
              0.153056760031935E+03
             -0.163483548805853E+02
              0.362453364187363E+02
              0.193771930735442E+02
              0.361320879253439E+02
              0.890378333260677E+02
              0.542147342326782E+02
             -0.238874996668045E+01
              0.227139155415250E+02
              0.483781502027186E+02
              0.362593228986184E+02
             -0.524363102615580E+02
              0.934284993014762E+02
             -0.824121420301395E+02
             -0.197948846729166E+02
              0.581873180347031E+02
              0.669918802634932E+01
              0.788288928327586E+01
              0.340562966036867E+02
              0.299004363121885E+02
              0.353117329667364E+02
             -0.636496020683877E+02
              0.287243447572348E+01
             -0.297231449475731E+02
             -0.869188368459933E+01
             -0.143888215014158E+01
             -0.718751247712846E+01
             -0.412732018011576E+01
              0.857908652715964E+02
             -0.101073954498934E+02
             -0.275737366732084E+02
             -0.496830228681942E+01
              0.139665882146702E+02
             -0.562637315646877E+02
             -0.405949342439939E+02
             -0.381524989854087E+02
             -0.628915062471204E+02
             -0.169219691669706E+02
             -0.446811774286968E+02
              0.162966777080203E+02
             -0.240536386788999E+01
             -0.104150183389252E+02
             -0.933022348115264E+01
              0.807493283829871E+01
             -0.242832565620588E+02
              0.688176799980778E+02
             -0.805503367125228E+02
             -0.140750769102226E+02
             -0.173926156347680E+02
              0.181764645518619E+02
              0.213868483375759E+02
             -0.462750006726615E+02
             -0.201761672923899E+02
              0.440104579395612E+02
             -0.275931170131400E+02
              0.186663346472362E+02
              0.382330238719551E+02
             -0.321558428192543E+01
              0.113913640489403E+03
             -0.230020578209289E+02
             -0.340416796518584E+02
              0.578382805250760E+01
             -0.227644251622206E+02
              0.526465039119699E+02
             -0.336284805522019E+02
              0.106326287762838E+02
              0.639748463428289E+02
             -0.126156009653971E+02
              0.120005066746748E+03
              0.125619724993814E+03
             -0.648488403469289E+02
              0.589493780334570E+02
              0.166021368293227E+02
             -0.516691746442484E+02
              0.216013289474282E+02
              0.353009924387353E+02
              0.361728055751183E+02
              0.133509014756208E+01
              0.159469939262674E+02
              0.694306323495256E+02
             -0.246559615522537E+02
              0.181257948930685E+02
              0.737875214493308E+02
             -0.371914973540800E+02
             -0.129042328615744E+02
              0.507375882586273E+02
              0.296800565334049E+02
              0.778972684834844E+02
              0.222076612954831E+02
              0.621789520739298E+01
              0.280095704054829E+02
              0.382482184009027E+02
             -0.470652980503157E+02
              0.329515376741654E+01
              0.129030092850126E+02
              0.113283945632334E+02
              0.220020059879324E+02
             -0.573662628405320E+02
              0.365483279630110E+02
             -0.443042588348337E+02
             -0.346849691665884E+02
              0.177613132321185E+02
             -0.181514342385112E+02
              0.553796518304365E+02
             -0.255956919019532E+02
              0.266220376409304E+02
              0.367809509267163E+02
              0.827839706500833E+02
              0.573753213603050E+02
              0.460809901810268E+02
             -0.105800921204994E+02
             -0.387417105029243E+01
             -0.331615411791867E+02
              0.749103439479609E+02
              0.795605314826864E+02
              0.361074343266451E+02
             -0.191333910435694E+02
              0.510931957984840E+02
             -0.163049337604057E+02
              0.214629912707501E+02
              0.613145754893071E+02
              0.213317588137849E+01
             -0.104261954737765E+02
             -0.282776849728739E+02
             -0.510327007820006E+02
              0.943454622204815E+02
              0.438660312525492E+02
             -0.557746108849379E+02
             -0.957206337824064E+01
              0.249520328270862E+02
             -0.996454308128045E+01
              0.590796154495242E+02
              0.151901584050884E+02
              0.797698590488014E+02
              0.278909256893596E+02
             -0.263501223898528E+02
              0.248652061133993E+02
             -0.501217354967918E+01
             -0.323153564851056E+02
              0.132951586277470E+02
              0.205516517831353E+02
              0.931201065131938E+02
              0.795990294326010E+02
              0.549961433194207E+02
              0.729604111490917E+02
              0.800782663552843E+01
             -0.273201437612223E+02
              0.162850566413211E+02
             -0.367574838574031E+02
             -0.475155076689830E+02
             -0.562567202139336E+02
             -0.266042826404225E+02
             -0.109514615562102E+03
             -0.290617650104128E+02
             -0.835559582436758E+02
              0.209600681661166E+02
             -0.476294294740605E+02
              0.395861682351212E+02
             -0.939463251150015E+02
             -0.329511992781530E+02
              0.548018249793288E+02
              0.207180389858764E+02
             -0.828834739743719E+02
              0.630111512107219E+02
             -0.256253337800438E+02
              0.511484388487688E+02
             -0.242191520514298E+02
             -0.749715345115611E+02
              0.111780218274604E+02
             -0.610124450157150E+02
             -0.168320476788674E+02
             -0.148442032486616E+01
              0.417564743636472E+02
              0.126779318121052E+03
             -0.460976523773540E+02
             -0.361910228148414E+02
             -0.979489187514162E+00
             -0.130239500904675E+02
             -0.821028442953566E+02
             -0.595909821806406E+02
              0.516334715492249E+02
             -0.288741734188312E+02
              0.168675797018972E+02
             -0.488536340933542E+02
             -0.131667875076714E+02
             -0.436627576069323E+02
              0.564697199404663E+02
              0.150785948840881E+02
             -0.231131201252796E+02
             -0.126499606503370E+02
              0.664380229229620E+01
             -0.618857451593124E+01
              0.440850015520310E+02
             -0.251614874535766E+02
              0.274491858494946E+01
              0.338559430508487E+02
              0.171138862059111E+02
             -0.159314418810942E+02
              0.155985921183435E+03
              0.536852696428127E+02
              0.113557246944205E+01
              0.161668675074977E+02
             -0.613721019286679E+02
              0.314478787234268E+02
             -0.720199702466535E+02
             -0.251438062052913E+02
             -0.521447988883612E+02
             -0.219711553532472E+02
              0.568069031457721E+02
             -0.535950573059744E+02
              0.160246973831006E+02
             -0.407031392946340E+01
              0.388014371791783E+01
             -0.433422075201262E+02
             -0.477667857481748E+02
             -0.400137231501651E+01
             -0.424514381349432E+02
             -0.216716659793619E+02
             -0.437682456361414E+02
             -0.119256671651867E+02
             -0.358437816573471E+02
             -0.515630826761279E+02
              0.212465134828328E+02
             -0.209256719331131E+02
              0.187422620914965E+02
              0.974125192325270E+01
             -0.736592591200396E+02
             -0.547312266364209E+02
             -0.397164273681004E+02
              0.353801749201987E+02
              0.272969287469169E+01
             -0.625703576173109E+02
              0.584659362082730E+02
             -0.400330248833568E+02
              0.543529556438775E+02
             -0.289035269822850E+02
             -0.445189864334566E+02
              0.298061158613855E+02
             -0.656268297149515E+02
             -0.379314833981562E+02
              0.671978519526841E+02
              0.203611108102040E+02
             -0.359232759946133E+02
              0.488527750139093E+02
             -0.173769533406635E+02
             -0.322059966245789E+02
             -0.301286006148769E+02
             -0.499720516869949E+02
              0.249009065306749E+02
             -0.931572803021089E+02
             -0.838988373735418E+02
             -0.732788679048281E+01
             -0.306347864724154E+02
             -0.574638630255371E+02
              0.720408329586603E+02
              0.131282712214856E+03
             -0.360686192307528E+02
             -0.254135368989381E+01
             -0.636149877162915E+02
              0.649308772491338E+02
              0.170368594841482E+02
             -0.181318209379008E+02
             -0.409465268600203E+02
              0.148369347288143E+02
             -0.585145818365460E+02
             -0.197586899750919E+02
             -0.903304035915631E+02
              0.336393613147392E+02
              0.168989140517332E+02
              0.185742973937045E+01
             -0.702669782471787E+01
             -0.328813307590203E+02
             -0.755584070237569E+01
              0.125265934382277E+03
             -0.198765797798892E+02
             -0.436483605568496E+02
             -0.682698010192351E+02
              0.108978864690022E+02
             -0.341342677858455E+02
              0.588432717835917E+01
              0.260823704767164E+02
              0.102109437300062E+02
              0.277184035331087E+02
              0.119470948139186E+02
              0.628548363214520E+02
              0.316450210189426E+02
             -0.325810355960758E+02
              0.354339501951719E+02
              0.379070873988498E+02
              0.120741931758845E+02
              0.486553471356073E+02
             -0.224028011795355E+02
              0.764620085770908E+02
              0.171913769331108E+02
             -0.271514070854133E+02
             -0.723245980975896E+01
             -0.186082113159743E+02
              0.261688891612459E+02
             -0.234037512717694E+02
             -0.922005700583384E-01
             -0.847088396467780E+01
              0.808172806105853E+02
              0.499035067695006E+02
             -0.686204612397755E+02
             -0.475077537173183E+01
             -0.554810481491519E+02
             -0.159318291123137E+02
             -0.268103342924732E+02
              0.372964664832386E+01
              0.594673873382648E+00
             -0.257087780158402E+02
              0.810720325378418E+01
             -0.601020434905963E+01
             -0.128620058346180E+02
              0.857423650444433E+02
              0.181566478685432E+02
             -0.805294523629550E+02
             -0.457753055226715E+02
              0.943182806460936E+02
              0.277374399052914E+02
             -0.106713947634544E+02
              0.104356412584859E+03
             -0.194629963755533E+02
             -0.122965090957811E+02
             -0.536999836625091E+01
              0.107204102320637E+02
              0.271653534554191E+02
              0.781319173157283E+01
              0.304987352814305E+02
             -0.187785175850549E+02
             -0.302922068995440E+02
             -0.416975481774618E+02
             -0.476065473040868E+02
              0.463316382993637E+02
              0.126669210006641E+02
              0.386993846570592E+02
              0.133192758978235E+02
              0.854013530817933E+02
              0.156061624068678E+02
             -0.844630952107108E+02
             -0.334000866259237E+02
              0.133829540112038E+02
             -0.302474865253008E+02
              0.625445062806529E+02
             -0.883003119724754E+01
              0.148410316475775E+02
              0.496281940465134E+02
             -0.705726407210842E+02
              0.149491628806645E+03
              0.208467020987954E+02
              0.270992775549397E+02
              0.346938622343417E+02
              0.103837063866796E+02
             -0.156307815979380E+01
              0.358015436668231E+02
             -0.356565413436230E+02
              0.771510773769748E+02
              0.683459110997972E+02
             -0.405368895747187E+02
              0.149390468842927E+02
              0.668893846522967E+02
             -0.223623573131643E+02
              0.153912982114646E+02
              0.434679703646021E+02
              0.421587388247424E+02
             -0.783556401398286E+02
             -0.152664798221945E+02
             -0.355817697015646E+02
             -0.147177417583083E+01
             -0.766870999708663E+01
             -0.547730788685328E+01
             -0.180551053644339E+02
             -0.293267730645093E+02
              0.630616380395931E+01
              0.111658598602187E+02
              0.534799834324829E+02
             -0.389368054955953E+02
              0.373450213190498E+02
              0.437634576481969E+02
             -0.186575697900154E+02
              0.870909439519429E+02
             -0.696680038120959E+02
             -0.102991469104269E+03
             -0.656399606536434E+01
             -0.266970844129867E+01
              0.387217304331989E+01
              0.788037921624821E+02
             -0.107166381186123E+02
              0.415964074813791E+02
              0.442504372122889E+02
              0.384576949035159E+02
             -0.993607808314209E+01
              0.626683599182901E+02
             -0.133353204870511E+02
             -0.306643106744972E+02
             -0.479135320998939E+02
              0.586379545172645E+01
              0.369195700978878E+02
             -0.601536028105201E+01
              0.392518637659676E+02
             -0.173038644400879E+01
              0.654380181967514E+02
              0.187085948187904E+02
              0.996885891278845E+01
             -0.122023635965674E+02
              0.331699880086357E+02
              0.361865860107555E+02
              0.232500039943517E+02
             -0.507530796433059E+00
             -0.549632171353693E+02
              0.260074189081544E+02
              0.174743369090687E+02
              0.402154981441682E+02
              0.271691085232077E+02
              0.371860334651120E+02
             -0.603509176239729E+01
              0.250385094978029E+02
             -0.298105102956838E+02
             -0.197438534439198E+01
             -0.568326710981215E+02
             -0.307284463786410E+02
              0.378018660199147E+02
             -0.934158430191286E+02
              0.294086347566225E+02
              0.183796074244211E+02
              0.838589629350643E+02
             -0.300603380526893E+02
              0.328881365062167E+02
             -0.137585205098226E+02
             -0.463105951267551E+02
             -0.760586230461470E+02
             -0.522354355804846E+01
             -0.858418715026148E+02
              0.199746985622991E+02
             -0.247103939532272E+02
              0.305230474081686E+02
              0.236444752204302E+02
             -0.240545368303956E+02
             -0.264889962645076E+02
              0.390286490004551E+02
             -0.587227834225868E+02
             -0.116330361811275E+02
             -0.195807333995055E+02
              0.212231795984972E+02
             -0.893858866568178E+01
              0.360216128627258E+01
             -0.200472209807101E+02
              0.557729015624843E+02
             -0.438393929244160E+02
              0.786650786607311E+01
              0.584147979906577E+02
             -0.322625334486873E+02
              0.359064278888764E+01
             -0.883597569638471E+01
             -0.668397441800113E+02
             -0.482061670741753E+02
             -0.861537772724483E+01
              0.240127042570690E+02
              0.301622807608691E+02
              0.860029575948909E+01
             -0.410769266630393E+01
              0.151577059922392E+02
             -0.439371579280992E+02
              0.333925348353296E+01
             -0.530351770147737E+02
             -0.324301259849522E+02
              0.473802311537879E+02
             -0.294578002293777E+02
              0.621159604657514E+02
             -0.214343978554737E+02
              0.353231586020954E+02
              0.241289390345736E+02
             -0.643127293054173E+02
             -0.280087228857165E+02
              0.930469646330528E+01
             -0.370839559252404E+02
             -0.339034520991973E+02
             -0.828366070471830E+02
             -0.538422743824964E+02
             -0.509570252552840E+02
             -0.414699377864075E+02
             -0.994033911806156E+00
              0.990211270414000E+01
              0.101349176434280E+01
              0.152597965673603E+02
             -0.548333105393040E+02
              0.141598814449387E+02
              0.256150018267009E+02
             -0.665709904664162E+02
             -0.701154312209786E+02
             -0.430616301688045E+02
             -0.171167276131772E+02
              0.178324225108983E+02
              0.455651041844862E+01
             -0.425302215048474E+02
              0.365796368436494E+02
             -0.215794839218238E+02
              0.516684806242286E+02
             -0.885572672904447E+02
              0.596468766159471E+02
             -0.209227364445596E+01
             -0.367800056563999E+02
             -0.215823451614397E+02
              0.471034637920508E+01
              0.373685325129407E+02
             -0.755123307420488E+02
             -0.120453355498163E+02
             -0.216396623950115E+02
              0.510441106716749E+02
              0.863440319794493E+02
             -0.963462657363716E+02
              0.942533284146095E+02
              0.467171366745934E+02
             -0.724201016549678E+02
             -0.366010672749072E+02
              0.750629112982774E+02
              0.631182936929439E+02
             -0.180868188684906E+02
             -0.463690821959943E+01
              0.728637642300427E+01
              0.647727197170808E+02
             -0.507387677274528E+02
              0.158147235532249E+02
             -0.469877547155059E+01
              0.347417757166271E+02
             -0.745738976591372E+02
             -0.646987077613128E+01
             -0.350769788770516E+02
              0.459854263400401E+02
[...]
              0.283213167273116E+02
              0.141548628398683E+03
              0.241879871182766E+02
              0.122246846803356E+02
             -0.463556404340368E+02
             -0.636606873303884E+02
             -0.188835028063699E+02
              0.329208881940487E+02
             -0.426200581402009E+01
              0.189386444495078E+02
              0.335433676017061E+02
             -0.585331001920724E+02
              0.221899556501778E+02
              0.581689838681767E+02
              0.551874859696635E+02
             -0.417482782140672E+01
             -0.138125830048057E+01
             -0.993502585247569E+01
             -0.481616255200275E+02
             -0.673658460061553E+02
              0.784078051339764E+02
             -0.520606008740850E+01
             -0.586856913874833E+02
              0.168117146975138E+01
             -0.204695639006143E+02
              0.936991683865521E+02
             -0.215973996833548E+02
             -0.352851199895960E+02
              0.334541386149737E+02
             -0.145371823752996E+02
              0.388678207332145E+02
             -0.238276204664697E+01
              0.100918031172551E+03
              0.488523435343054E+02
             -0.516098093021652E+01
             -0.321070083892794E+02
              0.231744911363404E+02
             -0.527438548102938E+02
             -0.127842153851947E+02
              0.584486167430846E+02
             -0.287189011618506E+02
             -0.437484026606829E+02
             -0.222733322453920E+02
              0.517714376697214E+02
              0.124586167532213E+02
             -0.847478530096136E+02
              0.303376130833867E+02
              0.151969428819820E+02
              0.574765754467688E+01
             -0.512559461387839E+02
             -0.379514418986975E+01
              0.322421808075314E+02
              0.512129596496732E+02
              0.631221033811287E+02
              0.228219962073627E+02
              0.732318445487209E+00
             -0.496961518189532E+02
             -0.509276235030902E+02
             -0.746817217994654E+02
             -0.610399040553921E+01
              0.308348031216390E+02
             -0.381942594600943E+01
              0.545839681904911E+02
             -0.317385521628295E+02
              0.166054120474175E+02
             -0.102179801670399E+02
             -0.289022653827487E+02
              0.584537172621689E+02
              0.791760612493857E+01
              0.602941209607626E+02
              0.508598243830102E+01
              0.264695645012207E+02
             -0.192345488836851E+02
              0.584925749286826E+02
             -0.111131930931097E+02
             -0.127707276786063E+00
             -0.788639081078810E+02
             -0.128301620247849E+02
              0.717841359020967E+02
              0.672047415855370E+02
              0.251164727932186E+02
             -0.129975556118987E+02
              0.341843180349139E+01
             -0.172952340567802E+02
             -0.200367278547111E+01
              0.905979448483022E+02
              0.122842551896804E+01
             -0.189680034214703E+02
             -0.110548007126368E+03
             -0.551984277739097E+02
             -0.374224057161258E+02
             -0.657401745267981E+02
             -0.554335364299409E+02
             -0.681302214762641E+02
             -0.446175467790055E+02
             -0.410417295672144E+02
             -0.450899649730325E+02
              0.482719776988290E+02
             -0.293956020260799E+02
             -0.994138709279024E+02
              0.418218792644680E+02
             -0.259246643388690E+02
             -0.789218003713822E+02
              0.941978417772989E+02
             -0.219251084991903E+02
              0.227855149767944E+02
              0.454624483881238E+02
             -0.137942694897492E+01
              0.253809512170120E+02
              0.471525127254012E+01
              0.417193890040839E+00
             -0.150400480457766E+02
             -0.714230961015091E+02
              0.133184654001047E+02
             -0.129165684897931E+03
              0.622640358599795E+02
             -0.439864223431830E+02
             -0.162479885362361E+02
             -0.157598804166589E+02
              0.708258823226539E+01
             -0.227482206980511E+02
              0.296637946407498E+02
             -0.519278580987791E+02
              0.366582375108084E+02
              0.370029829057030E+02
              0.168328336217537E+02
              0.100435312477335E+02
              0.197371622199338E+02
              0.618474104141166E+01
              0.309806496079645E+02
             -0.799159308198162E+01
             -0.590623996359266E+02
              0.756254840236943E+01
             -0.151789580049654E+02
             -0.192357780853172E+01
              0.505078997177574E+02
             -0.825385000948254E+02
             -0.150757056950152E+01
              0.553959937647960E+00
              0.994036134532081E+01
              0.317765833604326E+02
             -0.123333671415378E+02
              0.834091773958897E+02
              0.487178211355925E+02
             -0.183030785115886E+02
             -0.955337079190008E+01
              0.105426592782840E+01
              0.768068892075357E+02
             -0.585314359736029E+02
             -0.105579065387548E+03
              0.308789317217510E+02
             -0.162872126232206E+02
             -0.139285533941695E+02
              0.130039259211035E+02
              0.767070931972771E+02
              0.463356104374228E+02
             -0.153043643083352E+02
             -0.501875718847521E+02
             -0.546375478402561E+01
              0.305898406927220E+02
             -0.111200040287517E+02
             -0.754179448336029E+02
             -0.268287119333260E+01
             -0.887834429765004E+02
             -0.474494425818089E+02
              0.766525531357016E+02
             -0.482477007497823E+02
             -0.634972680033305E+02
             -0.513363217445851E+02
             -0.348815129422263E+02
              0.340403704776605E+02
              0.819923079317694E+02
             -0.353989446284805E+01
              0.275986453625709E+02
             -0.183318087305673E+02
             -0.692472457411658E+02
              0.464075457008692E+02
             -0.443987792481531E+02
              0.321459873280313E+02
              0.375698762309206E+02
             -0.652013101431396E+01
              0.389878325629351E+02
              0.437697456081369E+02
              0.100404932537064E+03
             -0.155944049614053E+02
             -0.454697149340409E+02
             -0.611334440693842E+02
             -0.123388043400483E+02
             -0.231975235376601E+02
              0.102838986786631E+03
             -0.448174666028860E+02
              0.104941311117578E+02
              0.972104217806907E+01
             -0.264222791419468E+02
             -0.796963527289774E+02
             -0.698618859956514E+01
              0.977780194419788E+02
              0.933615830157343E+01
              0.808817742128241E+01
             -0.525649732569027E+02
             -0.604133877319148E+02
             -0.559166636063225E+01
              0.499344505803502E+02
             -0.221394266685747E+02
              0.107772830686387E+03
             -0.434654901688913E+02
              0.145855837488072E+02
             -0.223869781009565E+02
             -0.717253424671266E+02
              0.166293750999324E+01
             -0.500519889399272E+02
             -0.759082316499323E+02
              0.612521140302044E+01
              0.234788592966385E+01
              0.513134665437858E+02
              0.186598764344386E+02
             -0.322863518377439E+02
              0.229698705197900E+02
             -0.809031047203089E+02
             -0.520795369580079E+02
              0.899904128863446E+02
              0.142256509509133E+02
             -0.188124561419919E+02
             -0.351927487808547E+02
             -0.269044752186244E+01
             -0.583655497959501E+01
              0.828277863997899E+02
              0.416941171233936E+02
             -0.165920281268835E+02
             -0.122128971151100E+02
             -0.426988374834664E+02
             -0.200482380035948E+02
             -0.668678292942467E+02
              0.458590944210276E+02
              0.545116419228722E+01
              0.144742118936850E+02
              0.155621466236443E+02
             -0.526872431909926E+00
             -0.167938180620662E+02
             -0.312370538483095E+01
             -0.100188521145517E+03
             -0.229682030823834E+02
             -0.762578525076640E+01
             -0.946973407075646E+01
              0.545375485262577E+02
              0.622492258036556E+02
              0.164449317788379E+02
             -0.968747327772689E+02
              0.646178580171776E+02
             -0.214507171580560E+02
             -0.376161243324838E+02
             -0.862328340898575E+02
             -0.386564531158981E+02
              0.563105881310673E+02
              0.243572534819988E+02
              0.510692510531146E+01
              0.291518180842589E+02
             -0.563799269582169E+02
             -0.421242264175460E+02
              0.513890320475432E+02
              0.386311269344442E+02
              0.517911186819186E+02
             -0.126014661969901E+01
              0.682005667305236E+01
              0.568437699446455E+02
              0.960653199365984E+02
             -0.299946718960931E+02
              0.321919966351761E+02
             -0.117767898518783E+02
             -0.411289032292874E+02
             -0.313545874402393E+02
             -0.299440693209733E+02
             -0.130978408346591E+02
             -0.522323180096202E+02
             -0.216852331848715E+02
             -0.140904602777177E+03
              0.368421977218131E+02
              0.206142162791249E+02
             -0.392712049421854E+01
             -0.379123478743779E+02
             -0.203753170092223E+02
             -0.525526971926070E+02
              0.151213327797620E+02
              0.818364243338402E+02
             -0.251900893923109E+02
             -0.162516160194178E+02
              0.237460210980834E+02
             -0.488401117125584E+02
              0.878830416695042E+02
              0.154097509110503E+02
              0.226343914393739E+02
              0.489033877470215E+02
              0.322338854468126E+01
              0.540829320564313E+02
              0.142475524446212E+02
             -0.106530220963781E+02
              0.727126885516836E+01
              0.820715880129342E+00
              0.726015584171488E+02
              0.101047372350646E+02
              0.119987986495662E+02
             -0.129930592197262E+02
              0.132189508432827E+02
             -0.909288074508379E+02
             -0.325041446684090E+02
             -0.456307130983107E+02
              0.484210187522708E+02
             -0.290383238027706E+02
             -0.657500385882914E+02
              0.537011845431590E+02
             -0.121837396004404E+02
              0.439186362506433E+02
             -0.896882990249841E+02
              0.231653673559353E+02
              0.856469116498246E+01
              0.580067430212830E+01
             -0.829545463017394E+01
             -0.901936613600174E+01
              0.478510409524626E+02
              0.200052864842411E+01
             -0.473687976765530E+02
             -0.175714283976098E+02
              0.276386509053293E+02
             -0.117701057753290E+03
             -0.927908195180814E+02
              0.397581088342480E+01
              0.117266166798175E+02
             -0.411994307371132E+02
             -0.389390244325705E+01
              0.111912911798834E+03
              0.305874701827130E+02
             -0.570447327794284E+02
              0.923460147447264E+01
             -0.961786933926288E+01
              0.105399050058301E+02
             -0.336748113879917E+02
              0.194921674551325E+02
              0.284030235282227E+02
             -0.295900398634757E+01
              0.107923276733405E+03
             -0.140393551317157E+02
             -0.315394380929965E+02
              0.142160550744452E+02
              0.465917197141833E+02
             -0.355302144916262E+02
             -0.316503397745637E+01
              0.962773674711847E+02
             -0.466208367662762E+01
              0.620522624338565E+02
              0.135043944206045E+02
             -0.900797407027233E+01
             -0.304977091787563E+02
              0.565546714997225E+02
             -0.512957158685788E+02
             -0.221620519663225E+01
             -0.169662643207633E+02
             -0.404377324424454E+02
              0.184614571727698E+02
              0.238618174442003E+02
              0.116166755153838E+02
              0.732702037878767E+00
             -0.383383666990426E+02
              0.215062249908270E+02
             -0.675285010629096E+01
             -0.246068611652224E+02
             -0.210160278867297E+02
              0.203125899490917E+02
             -0.597268376788691E+01
             -0.348315718111955E+02
             -0.106394483772677E+03
              0.102691991979584E+02
              0.248694057156602E+02
             -0.386066949416131E+02
             -0.210391524094781E+02
              0.805209585756264E+02
              0.647891676594514E+01
              0.309695951668690E+02
              0.386201455577276E+01
              0.320877924927985E+02
              0.647127109377635E+01
             -0.372089813620270E+02
             -0.229405728888389E+01
              0.874637427098742E+01
              0.273188960108182E+02
              0.780341618428583E+02
              0.506445547767735E+02
              0.170957076860873E+00
              0.168887602796992E+02
              0.611937035518347E+02
              0.235152480524847E+02
             -0.751522297179340E+02
             -0.273214862572850E+02
              0.150959044427660E+02
              0.558821904714421E+01
              0.254409159788336E+02
             -0.546817677060258E+02
              0.896928983530830E+01
              0.384941251455039E+02
              0.497024214846900E+02
             -0.433984707605863E+02
             -0.691456281571925E+01
             -0.207204575634859E+01
             -0.133355257408282E+02
             -0.365032010048929E+02
             -0.215029380662723E+02
             -0.198254536930212E+01
              0.790209252527916E+01
              0.420479110066184E+02
             -0.307398137313302E+02
              0.824449124888922E+02
              0.326606247006262E+02
              0.219048063884170E+02
              0.332258370844676E+02
              0.322780559458019E+02
              0.345400810876816E+02
              0.536023366837358E+02
             -0.432894237467406E+02
              0.618219722514668E+02
             -0.112027293109456E+03
              0.306832109331126E+02
             -0.106310277144769E+03
              0.852981504162557E+02
              0.688896644932956E+02
             -0.109682534841646E+02
             -0.492409549925897E+02
             -0.428697815769632E+02
             -0.622492457404981E+02
             -0.627339555875009E+02
              0.550520080340518E+02
              0.404546284604873E+02
              0.236226398305437E+02
              0.373450152073646E+02
              0.402038489825468E+02
             -0.381279229810674E+02
             -0.197610082306969E+02
              0.585380955416353E+02
             -0.115753489047399E+02
              0.550754628723854E+02
              0.697650772582057E+02
             -0.553619003489872E+01
             -0.704633294010754E+02
             -0.916119147103473E+00
             -0.247965447409742E+01
             -0.880159838686836E+01
             -0.180744688306697E+01
             -0.651693349521609E+02
             -0.210673983062542E+02
              0.536222058052344E+01
              0.895201133266031E+01
              0.467787711768483E+02
             -0.396825093973535E+02
              0.656638529481534E+02
             -0.424523778139914E+02
              0.209788556549799E+02
              0.349369325430505E+02
 
 BEEF-vdW xc energy contributions
           1 :   -781.536150294868     
           2 :    718.153585962742     
           3 :   -608.340747917450     
           4 :    478.947286450313     
           5 :   -357.323451808459     
           6 :    263.243269199754     
           7 :   -204.402723889502     
           8 :    176.370226151697     
           9 :   -166.566031294006     
          10 :    160.380028819448     
          11 :   -146.935638265564     
          12 :    122.342035347627     
          13 :   -89.5916272357853     
          14 :    55.6950236744616     
          15 :   -27.7032331387027     
          16 :    9.42461533799758     
          17 :  -0.118671328630853     
          18 :   -4.56572696602530     
          19 :    10.1168994553317     
          20 :   -20.4607550877346     
          21 :    36.2691315283516     
          22 :   -54.9396644123335     
          23 :    72.0870502006550     
          24 :   -83.7322055254915     
          25 :    88.1174235623417     
          26 :   -86.3422973005650     
          27 :    81.6253625423715     
          28 :   -77.6469753879888     
          29 :    76.8031616569845     
          30 :   -79.1948886226552     
          31 :   -85.6070215022546     
          32 :   -65.6299950751012     

     Writing output data file ./pwscf.save/
 
     init_run     :    335.96s CPU    340.31s WALL (       1 calls)
     electrons    :  13901.33s CPU  14052.17s WALL (       1 calls)
     forces       :    100.73s CPU    102.27s WALL (       1 calls)

     Called by init_run:
     wfcinit      :    287.20s CPU    290.55s WALL (       1 calls)
     potinit      :     45.38s CPU     45.69s WALL (       1 calls)
     hinit0       :      1.44s CPU      1.47s WALL (       1 calls)

     Called by electrons:
     c_bands      :  11537.60s CPU  11653.18s WALL (      21 calls)
     sum_band     :   1638.19s CPU   1655.32s WALL (      21 calls)
     v_of_rho     :    133.56s CPU    138.02s WALL (      21 calls)
     newd         :     33.73s CPU     46.95s WALL (      21 calls)
     PAW_pot      :    140.17s CPU    140.29s WALL (      21 calls)
     mix_rho      :    464.17s CPU    465.35s WALL (      21 calls)
     vdW_kernel   :     33.46s CPU     33.46s WALL (       1 calls)

     Called by c_bands:
     init_us_2    :     83.21s CPU     83.58s WALL (     572 calls)
     cegterg      :  10698.13s CPU  10811.95s WALL (     273 calls)

     Called by *egterg:
     cdiaghg      :    117.07s CPU    117.21s WALL (    1683 calls)
     h_psi        :   6956.72s CPU   7000.91s WALL (    1709 calls)
     s_psi        :   1145.53s CPU   1146.82s WALL (    1709 calls)
     g_psi        :     17.30s CPU     17.34s WALL (    1423 calls)

     Called by h_psi:
     h_psi:calbec :   1068.79s CPU   1070.38s WALL (    1709 calls)
     vloc_psi     :   4713.46s CPU   4720.90s WALL (    1709 calls)
     add_vuspsi   :   1146.52s CPU   1148.03s WALL (    1709 calls)

     General routines
     calbec       :   1557.92s CPU   1560.36s WALL (    2034 calls)
     fft          :     50.93s CPU     51.06s WALL (    3281 calls)
     ffts         :    146.69s CPU    146.83s WALL (   10118 calls)
     fftw         :   4804.09s CPU   4811.31s WALL (  350358 calls)
 
     Parallel routines
 
     PWSCF        :      4h 1m CPU      4h 4m WALL

 
   This run was terminated on:  18:19:16  26Sep2022            

=------------------------------------------------------------------------------=
   JOB DONE.
=------------------------------------------------------------------------------=
