
     Program PWSCF v.6.7MaX starts on  3Jan2023 at 22:49:27 

     This program is part of the open-source Quantum ESPRESSO suite
     for quantum simulation of materials; please cite
         "P. Giannozzi et al., J. Phys.:Condens. Matter 21 395502 (2009);
         "P. Giannozzi et al., J. Phys.:Condens. Matter 29 465901 (2017);
          URL http://www.quantum-espresso.org", 
     in publications or presentations arising from this work. More details at
     http://www.quantum-espresso.org/quote

     Parallel version (MPI), running on     1 processors

     MPI processes distributed on     1 nodes
     Reading input from ochch2-ensemble.in
Warning: card &CELL ignored
Warning: card / ignored

     Current dimensions of program PWSCF are:
     Max number of different atomic species (ntypx) = 10
     Max number of k-points (npk) =  40000
     Max angular momentum in pseudopotentials (lmaxx) =  3
     file Pt.pbe-n-kjpaw_psl.1.0.0.UPF: wavefunction(s)  6S 5D renormalized
     file O.pbe-nl-kjpaw_psl.1.0.0.UPF: wavefunction(s)  2S 2P renormalized
     file C.pbe-n-kjpaw_psl.1.0.0.UPF: wavefunction(s)  2S 2P renormalized
     file H.pbe-kjpaw_psl.1.0.0.UPF: wavefunction(s)  1S renormalized

     **************************************************************************
     Initializing libbeef V0.1.2 with the BEEF-vdW functional.
     Citation: Wellendorff et al., PRB 85, 235149 (2012).
     **************************************************************************


     IMPORTANT: XC functional enforced from input :
     Exchange-correlation= BEEF-VDW
                           (   1   4  43  14   2   0   0)
     Any further DFT definition will be discarded
     Please, verify this is what you really want


     Subspace diagonalization in iterative solution of the eigenvalue problem:
     a serial algorithm will be used

 
     G-vector sticks info
     --------------------
     sticks:   dense  smooth     PW     G-vecs:    dense   smooth      PW
     Sum        4267    4267   1159               739407   739407  104253
 


     bravais-lattice index     =            0
     lattice parameter (alat)  =      16.0349  a.u.
     unit-cell volume          =   11773.6413 (a.u.)^3
     number of atoms/cell      =           42
     number of atomic types    =            4
     number of electrons       =       377.00
     number of Kohn-Sham states=          227
     kinetic-energy cutoff     =      60.0000  Ry
     charge density cutoff     =     240.0000  Ry
     scf convergence threshold =      1.0E-06
     mixing beta               =       0.7000
     number of iterations used =            8  local-TF  mixing
     Exchange-correlation= BEEF-VDW
                           (   1   4  43  14   2   0   0)

     celldm(1)=  16.034858  celldm(2)=   0.000000  celldm(3)=   0.000000
     celldm(4)=   0.000000  celldm(5)=   0.000000  celldm(6)=   0.000000

     crystal axes: (cart. coord. in units of alat)
               a(1) = (   1.000000   0.000000   0.000000 )  
               a(2) = (   0.500000   0.866025   0.000000 )  
               a(3) = (   0.000000   0.000000   3.297500 )  

     reciprocal axes: (cart. coord. in units 2 pi/alat)
               b(1) = (  1.000000 -0.577350  0.000000 )  
               b(2) = (  0.000000  1.154701  0.000000 )  
               b(3) = (  0.000000  0.000000  0.303260 )  


     PseudoPot. # 1 for Pt read from file:
     /users/bkreitz1/quantum-espresso/potentials/Pt.pbe-n-kjpaw_psl.1.0.0.UPF
     MD5 check sum: 04dc8a03c51ece93fc7b5889c2958091
     Pseudo is Projector augmented-wave + core cor, Zval = 10.0
     Generated using 'atomic' code by A. Dal Corso  v.6.7MaX
     Shape of augmentation charge: PSQ
     Using radial grid of 1277 points,  6 beta functions with: 
                l(1) =   0
                l(2) =   0
                l(3) =   1
                l(4) =   1
                l(5) =   2
                l(6) =   2
     Q(r) pseudized with 0 coefficients 


     PseudoPot. # 2 for O  read from file:
     /users/bkreitz1/quantum-espresso/potentials/O.pbe-nl-kjpaw_psl.1.0.0.UPF
     MD5 check sum: eef08af8b58d9ec80f8fdb78829eb7cf
     Pseudo is Projector augmented-wave + core cor, Zval =  6.0
     Generated using 'atomic' code by A. Dal Corso  v.6.7MaX
     Shape of augmentation charge: PSQ
     Using radial grid of 1095 points,  4 beta functions with: 
                l(1) =   0
                l(2) =   0
                l(3) =   1
                l(4) =   1
     Q(r) pseudized with 0 coefficients 


     PseudoPot. # 3 for C  read from file:
     /users/bkreitz1/quantum-espresso/potentials/C.pbe-n-kjpaw_psl.1.0.0.UPF
     MD5 check sum: a169b0ebad56f5ec0d79c4633f80bf22
     Pseudo is Projector augmented-wave + core cor, Zval =  4.0
     Generated using 'atomic' code by A. Dal Corso  v.6.7MaX
     Shape of augmentation charge: PSQ
     Using radial grid of 1073 points,  4 beta functions with: 
                l(1) =   0
                l(2) =   0
                l(3) =   1
                l(4) =   1
     Q(r) pseudized with 0 coefficients 


     PseudoPot. # 4 for H  read from file:
     /users/bkreitz1/quantum-espresso/potentials/H.pbe-kjpaw_psl.1.0.0.UPF
     MD5 check sum: ae98473e6dc62675f0d0baffdab24f65
     Pseudo is Projector augmented-wave, Zval =  1.0
     Generated using 'atomic' code by A. Dal Corso  v.6.7MaX
     Shape of augmentation charge: PSQ
     Using radial grid of  929 points,  2 beta functions with: 
                l(1) =   0
                l(2) =   0
     Q(r) pseudized with 0 coefficients 


     atomic species   valence    mass     pseudopotential
        Pt            10.00   195.08400     Pt( 1.00)
        O              6.00    15.99900     O ( 1.00)
        C              4.00    12.01100     C ( 1.00)
        H              1.00     1.00800     H ( 1.00)

     No symmetry found



   Cartesian axes

     site n.     atom                  positions (alat units)
         1           Pt  tau(   1) = (   0.0000000   0.0000000   1.0017346  )
         2           Pt  tau(   2) = (   0.3333333   0.0000000   1.0017346  )
         3           Pt  tau(   3) = (   0.6666667   0.0000000   1.0017346  )
         4           Pt  tau(   4) = (   0.1666667   0.2886751   1.0017346  )
         5           Pt  tau(   5) = (   0.5000000   0.2886751   1.0017346  )
         6           Pt  tau(   6) = (   0.8333333   0.2886751   1.0017346  )
         7           Pt  tau(   7) = (   0.3333333   0.5773503   1.0017346  )
         8           Pt  tau(   8) = (   0.6666667   0.5773503   1.0017346  )
         9           Pt  tau(   9) = (   1.0000000   0.5773503   1.0017346  )
        10           Pt  tau(  10) = (   0.1666667   0.0962250   1.2739001  )
        11           Pt  tau(  11) = (   0.5000000   0.0962250   1.2739001  )
        12           Pt  tau(  12) = (   0.8333333   0.0962250   1.2739001  )
        13           Pt  tau(  13) = (   0.3333333   0.3849002   1.2739001  )
        14           Pt  tau(  14) = (   0.6666667   0.3849002   1.2739001  )
        15           Pt  tau(  15) = (   1.0000000   0.3849002   1.2739001  )
        16           Pt  tau(  16) = (   0.5000000   0.6735753   1.2739001  )
        17           Pt  tau(  17) = (   0.8333333   0.6735753   1.2739001  )
        18           Pt  tau(  18) = (   1.1666667   0.6735753   1.2739001  )
        19           Pt  tau(  19) = (  -0.0018596   0.1905237   1.5472866  )
        20           Pt  tau(  20) = (   0.3340820   0.1888457   1.5406231  )
        21           Pt  tau(  21) = (   0.6700138   0.1899469   1.5474031  )
        22           Pt  tau(  22) = (   0.1674928   0.4774665   1.5417049  )
        23           Pt  tau(  23) = (   0.5008603   0.4774480   1.5416889  )
        24           Pt  tau(  24) = (   0.8342080   0.4767430   1.5439905  )
        25           Pt  tau(  25) = (   0.3338524   0.7660985   1.5425486  )
        26           Pt  tau(  26) = (   0.6679204   0.7667820   1.5402867  )
        27           Pt  tau(  27) = (   1.0010838   0.7671348   1.5415248  )
        28           Pt  tau(  28) = (   0.0050580  -0.0122218   1.8137640  )
        29           Pt  tau(  29) = (   0.3356941  -0.0095389   1.8168782  )
        30           Pt  tau(  30) = (   0.6671311  -0.0112530   1.8180784  )
        31           Pt  tau(  31) = (   0.1715740   0.2791674   1.8151123  )
        32           Pt  tau(  32) = (   0.4996547   0.2789569   1.8148540  )
        33           Pt  tau(  33) = (   0.8362392   0.2744938   1.8306120  )
        34           Pt  tau(  34) = (   0.3353520   0.5672682   1.8161300  )
        35           Pt  tau(  35) = (   0.6677544   0.5697068   1.8132093  )
        36           Pt  tau(  36) = (   1.0033699   0.5701242   1.8132939  )
        37           O   tau(  37) = (   0.8319460   0.3199703   2.0686440  )
        38           C   tau(  38) = (   0.8191622   0.2173691   2.1848505  )
        39           C   tau(  39) = (   0.8324164   0.0580083   2.1847343  )
        40           H   tau(  40) = (   0.7946780   0.2779610   2.2959430  )
        41           H   tau(  41) = (   0.8172108  -0.0058647   2.2939402  )
        42           H   tau(  42) = (   0.8609192  -0.0088228   2.0808992  )

     number of k points=    13  Marzari-Vanderbilt smearing, width (Ry)=  0.0200
                       cart. coord. in units 2pi/alat
        k(    1) = (   0.0000000   0.0000000   0.0000000), wk =   0.0800000
        k(    2) = (   0.0000000   0.2309401   0.0000000), wk =   0.1600000
        k(    3) = (   0.0000000   0.4618802   0.0000000), wk =   0.1600000
        k(    4) = (   0.2000000  -0.1154701   0.0000000), wk =   0.1600000
        k(    5) = (   0.2000000   0.1154701   0.0000000), wk =   0.1600000
        k(    6) = (   0.2000000   0.3464102   0.0000000), wk =   0.1600000
        k(    7) = (   0.2000000  -0.5773503   0.0000000), wk =   0.1600000
        k(    8) = (   0.2000000  -0.3464102   0.0000000), wk =   0.1600000
        k(    9) = (   0.4000000  -0.2309401   0.0000000), wk =   0.1600000
        k(   10) = (   0.4000000  -0.0000000   0.0000000), wk =   0.1600000
        k(   11) = (   0.4000000   0.2309401   0.0000000), wk =   0.1600000
        k(   12) = (   0.4000000  -0.6928203   0.0000000), wk =   0.1600000
        k(   13) = (   0.4000000  -0.4618802   0.0000000), wk =   0.1600000

     Dense  grid:   739407 G-vectors     FFT dimensions: (  80,  80, 270)

     Estimated max dynamical RAM per process >       9.02 GB

     Check: negative core charge=   -0.000002

     Initial potential from superposition of free atoms

     starting charge  376.99378, renormalised to  377.00000

     negative rho (up, down):  1.180E-02 0.000E+00


     %%%%%%%%%%%%%%%%%%%%%%%%%%%%%%%%%%%%%%%%%%%%%%%%%%%%%%%%%%%%%%%%%%%%%%%%
     %                                                                      %
     % You are using vdW-DF, which was implemented by the Thonhauser group. %
     % Please cite the following two papers that made this development      %
     % possible and the two reviews that describe the various versions:     %
     %                                                                      %
     %   T. Thonhauser et al., PRL 115, 136402 (2015).                      %
     %   T. Thonhauser et al., PRB 76, 125112 (2007).                       %
     %   K. Berland et al., Rep. Prog. Phys. 78, 066501 (2015).             %
     %   D.C. Langreth et al., J. Phys.: Condens. Matter 21, 084203 (2009). %
     %                                                                      %
     %                                                                      %
     % If you are calculating the stress with vdW-DF, please also cite:     %
     %                                                                      %
     %   R. Sabatini et al., J. Phys.: Condens. Matter 24, 424209 (2012).   %
     %                                                                      %
     %%%%%%%%%%%%%%%%%%%%%%%%%%%%%%%%%%%%%%%%%%%%%%%%%%%%%%%%%%%%%%%%%%%%%%%%


     Starting wfcs are  339 randomized atomic wfcs
     Checking if some PAW data can be deallocated... 

     total cpu time spent up to now is      368.6 secs

     Self-consistent Calculation

     iteration #  1     ecut=    60.00 Ry     beta= 0.70
     Davidson diagonalization with overlap
     ethr =  1.00E-02,  avg # of iterations =  2.2

     Threshold (ethr) on eigenvalues was too large:
     Diagonalizing with lowered threshold

     Davidson diagonalization with overlap
     ethr =  7.73E-04,  avg # of iterations =  2.9

     negative rho (up, down):  1.172E-02 0.000E+00

     total cpu time spent up to now is     1759.5 secs

     total energy              =  -27838.11470105 Ry
     estimated scf accuracy    <       3.10679494 Ry

     iteration #  2     ecut=    60.00 Ry     beta= 0.70
     Davidson diagonalization with overlap
     ethr =  8.24E-04,  avg # of iterations =  2.5

     negative rho (up, down):  9.818E-03 0.000E+00

     total cpu time spent up to now is     2403.9 secs

     total energy              =  -27838.22559456 Ry
     estimated scf accuracy    <       1.23294200 Ry

     iteration #  3     ecut=    60.00 Ry     beta= 0.70
     Davidson diagonalization with overlap
     ethr =  3.27E-04,  avg # of iterations =  3.2

     negative rho (up, down):  6.067E-03 0.000E+00

     total cpu time spent up to now is     3082.3 secs

     total energy              =  -27838.25088536 Ry
     estimated scf accuracy    <       0.48630573 Ry

     iteration #  4     ecut=    60.00 Ry     beta= 0.70
     Davidson diagonalization with overlap
     ethr =  1.29E-04,  avg # of iterations =  9.4

     negative rho (up, down):  4.664E-03 0.000E+00

     total cpu time spent up to now is     3911.1 secs

     total energy              =  -27838.31495360 Ry
     estimated scf accuracy    <       0.18282891 Ry

     iteration #  5     ecut=    60.00 Ry     beta= 0.70
     Davidson diagonalization with overlap
     ethr =  4.85E-05,  avg # of iterations =  5.8

     negative rho (up, down):  3.516E-03 0.000E+00

     total cpu time spent up to now is     4659.2 secs

     total energy              =  -27838.32476436 Ry
     estimated scf accuracy    <       0.04745919 Ry

     iteration #  6     ecut=    60.00 Ry     beta= 0.70
     Davidson diagonalization with overlap
     c_bands:  1 eigenvalues not converged
     ethr =  1.26E-05,  avg # of iterations = 11.1

     negative rho (up, down):  3.472E-03 0.000E+00

     total cpu time spent up to now is     5591.7 secs

     total energy              =  -27838.33393301 Ry
     estimated scf accuracy    <       0.06644140 Ry

     iteration #  7     ecut=    60.00 Ry     beta= 0.70
     Davidson diagonalization with overlap
     ethr =  1.26E-05,  avg # of iterations =  2.0

     negative rho (up, down):  5.735E-03 0.000E+00

     total cpu time spent up to now is     6195.8 secs

     total energy              =  -27838.33341905 Ry
     estimated scf accuracy    <       0.03087106 Ry

     iteration #  8     ecut=    60.00 Ry     beta= 0.70
     Davidson diagonalization with overlap
     c_bands:  1 eigenvalues not converged
     c_bands:  1 eigenvalues not converged
     ethr =  8.19E-06,  avg # of iterations = 10.8

     negative rho (up, down):  6.315E-03 0.000E+00

     total cpu time spent up to now is     6910.7 secs

     total energy              =  -27838.33448091 Ry
     estimated scf accuracy    <       0.00198597 Ry

     iteration #  9     ecut=    60.00 Ry     beta= 0.70
     Davidson diagonalization with overlap
     c_bands:  1 eigenvalues not converged
     c_bands:  1 eigenvalues not converged
     ethr =  5.27E-07,  avg # of iterations =  9.8

     negative rho (up, down):  7.762E-03 0.000E+00

     total cpu time spent up to now is     7840.8 secs

     total energy              =  -27838.33513988 Ry
     estimated scf accuracy    <       0.00137543 Ry

     iteration # 10     ecut=    60.00 Ry     beta= 0.70
     Davidson diagonalization with overlap
     ethr =  3.65E-07,  avg # of iterations =  2.0

     negative rho (up, down):  8.131E-03 0.000E+00

     total cpu time spent up to now is     8454.2 secs

     total energy              =  -27838.33521056 Ry
     estimated scf accuracy    <       0.00077964 Ry

     iteration # 11     ecut=    60.00 Ry     beta= 0.70
     Davidson diagonalization with overlap
     ethr =  2.07E-07,  avg # of iterations =  1.2

     negative rho (up, down):  8.681E-03 0.000E+00

     total cpu time spent up to now is     9038.0 secs

     total energy              =  -27838.33525100 Ry
     estimated scf accuracy    <       0.00042932 Ry

     iteration # 12     ecut=    60.00 Ry     beta= 0.70
     Davidson diagonalization with overlap
     ethr =  1.14E-07,  avg # of iterations =  1.7

     negative rho (up, down):  9.685E-03 0.000E+00

     total cpu time spent up to now is     9650.4 secs

     total energy              =  -27838.33526284 Ry
     estimated scf accuracy    <       0.00027733 Ry

     iteration # 13     ecut=    60.00 Ry     beta= 0.70
     Davidson diagonalization with overlap
     ethr =  7.36E-08,  avg # of iterations =  1.3

     negative rho (up, down):  1.108E-02 0.000E+00

     total cpu time spent up to now is    10250.2 secs

     total energy              =  -27838.33526178 Ry
     estimated scf accuracy    <       0.00015278 Ry

     iteration # 14     ecut=    60.00 Ry     beta= 0.70
     Davidson diagonalization with overlap
     ethr =  4.05E-08,  avg # of iterations =  2.0

     negative rho (up, down):  1.074E-02 0.000E+00

     total cpu time spent up to now is    10884.6 secs

     total energy              =  -27838.33527138 Ry
     estimated scf accuracy    <       0.00005111 Ry

     iteration # 15     ecut=    60.00 Ry     beta= 0.70
     Davidson diagonalization with overlap
     ethr =  1.36E-08,  avg # of iterations =  3.2

     negative rho (up, down):  1.179E-02 0.000E+00

     total cpu time spent up to now is    11557.7 secs

     total energy              =  -27838.33526818 Ry
     estimated scf accuracy    <       0.00003380 Ry

     iteration # 16     ecut=    60.00 Ry     beta= 0.70
     Davidson diagonalization with overlap
     ethr =  8.96E-09,  avg # of iterations =  2.0

     negative rho (up, down):  1.245E-02 0.000E+00

     total cpu time spent up to now is    12201.8 secs

     total energy              =  -27838.33526597 Ry
     estimated scf accuracy    <       0.00003195 Ry

     iteration # 17     ecut=    60.00 Ry     beta= 0.70
     Davidson diagonalization with overlap
     ethr =  8.48E-09,  avg # of iterations =  1.9

     negative rho (up, down):  1.243E-02 0.000E+00

     total cpu time spent up to now is    12831.8 secs

     total energy              =  -27838.33526782 Ry
     estimated scf accuracy    <       0.00001153 Ry

     iteration # 18     ecut=    60.00 Ry     beta= 0.70
     Davidson diagonalization with overlap
     ethr =  3.06E-09,  avg # of iterations =  2.0

     negative rho (up, down):  1.283E-02 0.000E+00

     total cpu time spent up to now is    13498.3 secs

     total energy              =  -27838.33526787 Ry
     estimated scf accuracy    <       0.00000314 Ry

     iteration # 19     ecut=    60.00 Ry     beta= 0.70
     Davidson diagonalization with overlap
     ethr =  8.33E-10,  avg # of iterations =  4.8

     negative rho (up, down):  1.314E-02 0.000E+00

     total cpu time spent up to now is    14330.6 secs

     total energy              =  -27838.33526788 Ry
     estimated scf accuracy    <       0.00000129 Ry

     iteration # 20     ecut=    60.00 Ry     beta= 0.70
     Davidson diagonalization with overlap
     ethr =  3.42E-10,  avg # of iterations =  2.2

     negative rho (up, down):  1.329E-02 0.000E+00

     total cpu time spent up to now is    14952.4 secs

     End of self-consistent calculation

          k = 0.0000 0.0000 0.0000 ( 92543 PWs)   bands (ev):

   -19.2239 -11.8809  -7.9029  -7.2123  -5.9209  -5.4836  -5.0001  -4.8584
    -4.8301  -4.8109  -4.8076  -4.7965  -4.7884  -4.7753  -4.7589  -4.2586
    -4.2552  -4.2500  -4.2434  -4.2393  -4.2271  -3.8068  -3.7858  -3.7772
    -3.7757  -3.7704  -3.7562  -3.5824  -3.5758  -3.5633  -3.5602  -3.5581
    -3.5272  -3.3914  -3.3516  -3.3473  -3.3388  -3.3305  -3.3285  -3.3250
    -3.3142  -3.3118  -3.2978  -3.2828  -3.2628  -3.1570  -2.9844  -2.7147
    -2.7109  -2.7009  -2.6921  -2.6783  -2.6465  -2.6315  -2.6148  -2.6098
    -2.5701  -2.4861  -2.4805  -2.4013  -2.3999  -2.0009  -1.9054  -1.8993
    -1.8847  -1.8713  -1.8623  -1.8292  -1.7510  -1.7259  -1.7194  -1.7172
    -1.7057  -1.6910  -1.6743  -1.6708  -1.6597  -1.6474  -1.6406  -1.6360
    -1.6290  -1.6114  -1.6049  -1.5491  -1.5088  -1.4897  -1.4793  -1.4454
    -1.4371  -1.3442  -1.3180  -1.2887  -1.2812  -1.2660  -1.2554  -1.2430
    -1.2287  -1.1683  -1.1574  -1.1468  -1.1010  -1.0953  -1.0378  -1.0370
    -1.0003  -0.9959  -0.9778  -0.9441  -0.8724  -0.8522  -0.8416  -0.8248
    -0.8140  -0.7461  -0.5295  -0.4039  -0.3783  -0.3625  -0.3589  -0.3453
    -0.3416  -0.3315  -0.2821  -0.2790  -0.2637  -0.2393  -0.2145  -0.1798
    -0.1699  -0.0671  -0.0409  -0.0336   0.0077   0.0218   0.0611   0.0733
     0.1065   0.1362   0.1440   0.1484   0.1724   0.3436   0.3601   0.3820
     0.3853   0.3917   0.4092   0.4420   0.4818   0.6202   0.6321   0.6407
     0.6679   0.6765   0.7026   0.7697   0.7898   0.8055   0.8169   0.8205
     0.8340   0.8577   0.8581   0.8699   0.8717   0.8977   0.9230   0.9544
     0.9630   0.9744   0.9878   0.9895   1.0244   1.0371   1.0673   1.0726
     1.0920   1.0960   1.1239   1.1284   1.1437   1.1515   1.1577   1.2090
     1.2169   1.2304   1.2396   1.2411   1.2547   1.2995   1.3203   1.3284
     1.3363   1.3513   1.3676   1.4270   1.5136   1.5920   1.6324   1.6526
     1.6638   1.6672   1.6795   1.6925   1.7632   2.5175   2.5520   2.5692
     2.5794   2.6010   2.6349   3.3177   4.8754   4.8806   4.8923   4.9124
     4.9382   5.3872   5.9851   6.2283   6.4107   6.4282   6.4547   6.4804
     6.4860   6.4898   6.5368

          k = 0.0000 0.2309 0.0000 ( 92392 PWs)   bands (ev):

   -19.2239 -11.8809  -7.8993  -7.0688  -5.7835  -5.4930  -5.3121  -4.9937
    -4.9099  -4.8964  -4.7105  -4.6626  -4.6170  -4.5609  -4.5544  -4.3589
    -4.3397  -4.1921  -4.1865  -4.1729  -4.1555  -3.8809  -3.7569  -3.7548
    -3.7424  -3.7338  -3.6599  -3.6555  -3.6008  -3.5963  -3.5873  -3.5797
    -3.5215  -3.4730  -3.4591  -3.3898  -3.3815  -3.3587  -3.3186  -3.3071
    -3.2257  -3.1470  -3.1348  -3.1198  -3.0795  -3.0710  -2.9710  -2.8432
    -2.8327  -2.8085  -2.7604  -2.7568  -2.7048  -2.6790  -2.5352  -2.5097
    -2.4697  -2.4598  -2.4307  -2.3987  -2.3842  -2.1803  -2.1079  -2.0783
    -2.0152  -1.9811  -1.9454  -1.9441  -1.9084  -1.8922  -1.8585  -1.8521
    -1.8458  -1.7911  -1.7334  -1.7013  -1.6911  -1.6801  -1.6614  -1.6486
    -1.6106  -1.5763  -1.5365  -1.5126  -1.4910  -1.4432  -1.4282  -1.3990
    -1.3938  -1.3357  -1.3192  -1.3141  -1.2971  -1.2873  -1.2631  -1.2432
    -1.2047  -1.1999  -1.1736  -1.1355  -1.1137  -1.0892  -1.0779  -1.0612
    -1.0340  -1.0172  -0.9718  -0.9023  -0.8760  -0.8632  -0.8561  -0.8354
    -0.8101  -0.7822  -0.7742  -0.7429  -0.7396  -0.7110  -0.6690  -0.5438
    -0.4535  -0.4397  -0.4037  -0.3425  -0.3266  -0.3156  -0.3048  -0.2874
    -0.2579  -0.1406  -0.1281  -0.1042  -0.0027   0.0064   0.0344   0.0785
     0.0862   0.1273   0.1342   0.1575   0.1717   0.2376   0.2532   0.2646
     0.2927   0.3033   0.4336   0.4765   0.4902   0.5200   0.5226   0.5604
     0.5756   0.6343   0.6442   0.6746   0.6816   0.7120   0.7397   0.7444
     0.7721   0.7966   0.8363   0.8965   0.9185   0.9568   0.9963   1.0156
     1.0376   1.0513   1.0747   1.0795   1.1067   1.1743   1.1913   1.2024
     1.2391   1.2512   1.2702   1.2926   1.3113   1.3149   1.3266   1.3281
     1.3608   1.3757   1.4027   1.4890   1.5261   1.5371   1.5823   1.5929
     1.6099   1.6333   1.6447   1.6654   1.6973   1.7121   1.7782   1.7892
     1.8080   1.9676   1.9754   1.9856   2.0416   2.2041   2.4609   2.6710
     3.1562   3.1658   3.2941   3.5788   4.2326   4.6183   4.8580   5.2874
     5.2945   5.4550   5.5800   5.8234   6.0851   6.2454   6.2741   6.2907
     6.5509   6.6585   6.6989

          k = 0.0000 0.4619 0.0000 ( 92390 PWs)   bands (ev):

   -19.2239 -11.8810  -7.8945  -6.6526  -6.0260  -5.5193  -5.3411  -5.0041
    -4.9442  -4.9293  -4.7923  -4.5860  -4.4310  -4.3207  -4.2777  -4.2228
    -4.2164  -4.0685  -4.0489  -4.0102  -4.0043  -4.0007  -3.8978  -3.8427
    -3.8394  -3.7968  -3.7939  -3.7528  -3.7257  -3.6511  -3.6489  -3.6393
    -3.3987  -3.3848  -3.3784  -3.3751  -3.3599  -3.3452  -3.2681  -3.1733
    -3.1250  -3.0959  -3.0859  -3.0819  -3.0317  -2.9882  -2.8853  -2.8015
    -2.7912  -2.7784  -2.7729  -2.7094  -2.6997  -2.6474  -2.6365  -2.6336
    -2.5714  -2.5623  -2.4371  -2.4186  -2.3954  -2.3824  -2.2721  -2.2497
    -2.2117  -2.1976  -2.1820  -2.0559  -2.0127  -1.9822  -1.9764  -1.9564
    -1.9029  -1.8757  -1.8401  -1.8156  -1.7814  -1.7528  -1.7137  -1.6861
    -1.6121  -1.5952  -1.5808  -1.5738  -1.5537  -1.5116  -1.5036  -1.4906
    -1.4766  -1.4709  -1.4542  -1.4328  -1.4233  -1.3724  -1.3424  -1.3247
    -1.3020  -1.2855  -1.2687  -1.2285  -1.1829  -1.1532  -1.1073  -1.1024
    -1.0623  -1.0380  -1.0167  -1.0115  -0.9896  -0.9067  -0.8666  -0.8418
    -0.7965  -0.7567  -0.7376  -0.6967  -0.5999  -0.5856  -0.5324  -0.5166
    -0.4632  -0.4407  -0.4257  -0.3871  -0.3635  -0.3512  -0.3051  -0.2967
    -0.2876  -0.2615  -0.2559  -0.2418  -0.2322  -0.2041  -0.1860  -0.1287
    -0.0753  -0.0687  -0.0186  -0.0089   0.0426   0.1279   0.1443   0.1632
     0.2648   0.2705   0.3852   0.4052   0.4182   0.4571   0.4717   0.4828
     0.5433   0.5583   0.6076   0.6105   0.6544   0.6763   0.6880   0.7462
     0.7932   0.8052   0.8123   0.8354   0.8519   0.9328   1.0065   1.0266
     1.0714   1.0852   1.0982   1.1101   1.1903   1.2065   1.2399   1.2588
     1.3213   1.3288   1.3739   1.3783   1.3864   1.4125   1.4486   1.4957
     1.5420   1.5671   1.5780   1.5948   1.6055   1.6217   1.6351   1.7543
     1.7810   1.8336   1.8474   1.8557   1.9881   1.9915   2.0447   2.4641
     2.4811   2.5640   2.8514   2.8700   2.9494   3.2631   3.2757   3.5614
     3.6264   4.0714   4.0838   4.1553   4.2775   4.3670   4.4214   4.5101
     4.7400   4.7464   4.8478   5.4260   5.4975   5.9157   5.9694   6.2218
     6.4100   6.4917   6.5237

          k = 0.2000-0.1155 0.0000 ( 92392 PWs)   bands (ev):

   -19.2239 -11.8809  -7.8998  -7.0681  -5.7804  -5.4875  -5.3072  -5.0019
    -4.9197  -4.8942  -4.7105  -4.6615  -4.6012  -4.5717  -4.5609  -4.3640
    -4.3378  -4.1910  -4.1821  -4.1699  -4.1501  -3.8883  -3.7616  -3.7533
    -3.7288  -3.7218  -3.6731  -3.6521  -3.6106  -3.5961  -3.5833  -3.5644
    -3.5163  -3.4938  -3.4776  -3.3872  -3.3563  -3.3436  -3.3299  -3.3128
    -3.2313  -3.1434  -3.1328  -3.1134  -3.1008  -3.0747  -2.9748  -2.8453
    -2.8350  -2.7770  -2.7607  -2.7414  -2.7259  -2.6819  -2.5620  -2.5212
    -2.4788  -2.4593  -2.4138  -2.4008  -2.3819  -2.1983  -2.1101  -2.0787
    -2.0304  -2.0137  -1.9930  -1.9436  -1.8858  -1.8644  -1.8526  -1.8465
    -1.8322  -1.7873  -1.7749  -1.7242  -1.7070  -1.6825  -1.6212  -1.6125
    -1.5715  -1.5614  -1.5348  -1.5231  -1.4824  -1.4664  -1.4379  -1.4150
    -1.3960  -1.3511  -1.3124  -1.3058  -1.2998  -1.2804  -1.2507  -1.2386
    -1.2115  -1.1740  -1.1487  -1.1303  -1.1235  -1.0920  -1.0728  -1.0583
    -1.0252  -1.0182  -0.9878  -0.8970  -0.8680  -0.8641  -0.8432  -0.8206
    -0.8166  -0.7865  -0.7658  -0.7596  -0.7391  -0.7147  -0.6751  -0.6044
    -0.4519  -0.4432  -0.3853  -0.3492  -0.3374  -0.3130  -0.2970  -0.2778
    -0.2718  -0.1296  -0.1258  -0.0690  -0.0080   0.0188   0.0403   0.0795
     0.0930   0.1282   0.1513   0.1620   0.2016   0.2352   0.2518   0.2688
     0.2817   0.2990   0.4339   0.4834   0.4975   0.5150   0.5256   0.5476
     0.5684   0.6344   0.6555   0.6664   0.6848   0.7134   0.7416   0.7655
     0.7758   0.7947   0.8745   0.8788   0.8985   0.9211   0.9956   1.0216
     1.0412   1.0685   1.0717   1.0809   1.1140   1.1435   1.1858   1.2010
     1.2434   1.2613   1.2677   1.2913   1.3018   1.3162   1.3221   1.3261
     1.3728   1.3822   1.4272   1.5015   1.5342   1.5634   1.5730   1.5789
     1.5948   1.6174   1.6327   1.6543   1.6746   1.6895   1.7772   1.7905
     1.8081   1.9617   1.9679   1.9846   2.0307   2.2382   2.4479   2.6269
     3.1731   3.1826   3.2897   3.5745   4.2725   4.6157   4.8166   5.2859
     5.2957   5.4507   5.5691   5.8132   6.0869   6.1699   6.2822   6.3797
     6.5623   6.6401   6.6635

          k = 0.2000 0.1155 0.0000 ( 92392 PWs)   bands (ev):

   -19.2239 -11.8809  -7.8998  -7.0681  -5.7800  -5.4867  -5.3111  -5.0048
    -4.9162  -4.8905  -4.7110  -4.6617  -4.6086  -4.5707  -4.5549  -4.3655
    -4.3385  -4.1910  -4.1800  -4.1731  -4.1503  -3.8859  -3.7611  -3.7562
    -3.7330  -3.7240  -3.6704  -3.6504  -3.6086  -3.5990  -3.5876  -3.5611
    -3.5207  -3.4893  -3.4745  -3.3867  -3.3590  -3.3511  -3.3213  -3.3111
    -3.2256  -3.1432  -3.1329  -3.1148  -3.0961  -3.0768  -2.9738  -2.8430
    -2.8355  -2.7868  -2.7628  -2.7454  -2.7193  -2.6791  -2.5574  -2.5206
    -2.4784  -2.4533  -2.4190  -2.4042  -2.3762  -2.1941  -2.1086  -2.0786
    -2.0351  -1.9984  -1.9773  -1.9401  -1.8987  -1.8750  -1.8570  -1.8505
    -1.8342  -1.7894  -1.7574  -1.7236  -1.7072  -1.6744  -1.6383  -1.6129
    -1.5918  -1.5638  -1.5327  -1.5150  -1.4875  -1.4551  -1.4380  -1.4026
    -1.3892  -1.3478  -1.3213  -1.3162  -1.3050  -1.2863  -1.2544  -1.2305
    -1.2100  -1.1774  -1.1598  -1.1319  -1.1151  -1.0950  -1.0741  -1.0603
    -1.0288  -1.0146  -0.9904  -0.9006  -0.8734  -0.8617  -0.8405  -0.8292
    -0.8167  -0.7862  -0.7680  -0.7574  -0.7367  -0.7149  -0.6772  -0.5784
    -0.4587  -0.4365  -0.3824  -0.3483  -0.3383  -0.3180  -0.2998  -0.2800
    -0.2686  -0.1415  -0.1257  -0.0636  -0.0042   0.0134   0.0402   0.0756
     0.0909   0.1283   0.1434   0.1566   0.2054   0.2340   0.2533   0.2696
     0.2818   0.3045   0.4385   0.4796   0.4963   0.5169   0.5278   0.5476
     0.5683   0.6309   0.6533   0.6681   0.6843   0.7098   0.7394   0.7662
     0.7755   0.7945   0.8734   0.8827   0.9064   0.9380   0.9973   1.0185
     1.0376   1.0564   1.0709   1.0803   1.1131   1.1659   1.1872   1.2046
     1.2247   1.2559   1.2676   1.2913   1.3014   1.3172   1.3215   1.3274
     1.3667   1.3791   1.4274   1.5012   1.5423   1.5618   1.5736   1.5792
     1.5950   1.6235   1.6271   1.6539   1.6755   1.6952   1.7776   1.7879
     1.8089   1.9622   1.9692   1.9853   2.0350   2.2397   2.4618   2.6222
     3.1683   3.1819   3.2857   3.5749   4.2718   4.6222   4.8115   5.2842
     5.2960   5.4529   5.5569   5.8263   6.0799   6.1801   6.2779   6.4036
     6.5600   6.6348   6.6600

          k = 0.2000 0.3464 0.0000 ( 92414 PWs)   bands (ev):

   -19.2239 -11.8810  -7.8958  -6.7872  -5.6045  -5.5725  -5.5273  -5.4137
    -4.9760  -4.5006  -4.4867  -4.4750  -4.4553  -4.4256  -4.4153  -4.4012
    -4.3860  -4.3051  -4.2903  -3.9316  -3.9175  -3.9040  -3.8959  -3.8489
    -3.8150  -3.6866  -3.6649  -3.6559  -3.6454  -3.6348  -3.5447  -3.5088
    -3.4931  -3.4868  -3.4794  -3.4162  -3.4032  -3.3887  -3.3466  -3.3229
    -3.2810  -3.2061  -3.0137  -2.9755  -2.9054  -2.8855  -2.8679  -2.8635
    -2.8352  -2.8164  -2.7978  -2.7670  -2.7573  -2.6043  -2.5963  -2.5597
    -2.5169  -2.4827  -2.4268  -2.4187  -2.4080  -2.3552  -2.3308  -2.1683
    -2.1452  -2.1330  -2.0627  -2.0394  -2.0249  -2.0192  -1.9974  -1.9497
    -1.9375  -1.8353  -1.7954  -1.7799  -1.7545  -1.7265  -1.6985  -1.6831
    -1.6548  -1.6462  -1.6005  -1.5765  -1.4862  -1.4756  -1.4599  -1.4431
    -1.4355  -1.4243  -1.4075  -1.3868  -1.3670  -1.3262  -1.3005  -1.2831
    -1.2271  -1.2016  -1.1893  -1.1624  -1.1230  -1.1095  -1.0840  -1.0716
    -1.0481  -1.0360  -1.0227  -0.9933  -0.9838  -0.9686  -0.9456  -0.9230
    -0.9078  -0.8294  -0.8154  -0.7743  -0.7316  -0.6970  -0.6930  -0.6460
    -0.5933  -0.4958  -0.4650  -0.3828  -0.3414  -0.3262  -0.3055  -0.2839
    -0.2616  -0.2479  -0.2325  -0.2035  -0.1895  -0.1380  -0.1250  -0.0913
     0.0031   0.0820   0.1045   0.1154   0.1441   0.1610   0.1915   0.2153
     0.3043   0.3223   0.3491   0.3763   0.4014   0.4648   0.5095   0.5343
     0.5434   0.5749   0.6127   0.6336   0.6487   0.6507   0.6616   0.6771
     0.6839   0.7131   0.7520   0.8559   0.8865   0.9288   0.9967   1.0270
     1.0861   1.1330   1.1985   1.2104   1.2476   1.2664   1.3312   1.3345
     1.3528   1.3668   1.3912   1.3996   1.4099   1.4247   1.4491   1.4642
     1.4872   1.5276   1.5503   1.5773   1.6145   1.6282   1.6395   1.6732
     1.7076   1.8445   1.8825   1.9015   1.9406   1.9613   1.9687   2.0917
     2.1057   2.2024   2.6196   2.6307   2.7379   3.1637   3.1863   3.2284
     3.3301   3.8967   3.9227   4.0915   4.1288   4.1564   4.4132   4.8075
     5.2762   5.3692   5.4601   5.5234   5.9873   6.0510   6.0978   6.1284
     6.1741   6.2778   6.3877

          k = 0.2000-0.5774 0.0000 ( 92406 PWs)   bands (ev):

   -19.2239 -11.8810  -7.8936  -6.2718  -6.2454  -5.6519  -5.4894  -5.0463
    -5.0057  -4.9098  -4.4990  -4.4761  -4.3499  -4.3138  -4.2063  -4.1984
    -4.1086  -4.0954  -4.0048  -3.9840  -3.9694  -3.9375  -3.9288  -3.9163
    -3.9078  -3.7936  -3.7684  -3.7528  -3.7297  -3.7154  -3.6477  -3.5531
    -3.5096  -3.4696  -3.3731  -3.3642  -3.3444  -3.3373  -3.3102  -3.2866
    -3.2129  -3.1615  -3.1156  -3.1006  -3.0090  -2.9354  -2.9145  -2.8713
    -2.7700  -2.7389  -2.7276  -2.7071  -2.6091  -2.5804  -2.5295  -2.5174
    -2.4849  -2.4370  -2.4180  -2.4034  -2.3209  -2.3072  -2.2913  -2.2800
    -2.2663  -2.2586  -2.2503  -2.2106  -2.1839  -2.0576  -2.0445  -2.0064
    -1.9881  -1.8985  -1.8927  -1.8504  -1.8062  -1.8023  -1.7865  -1.7671
    -1.7292  -1.6646  -1.6441  -1.6248  -1.6019  -1.5765  -1.5441  -1.5092
    -1.4837  -1.4536  -1.4051  -1.3886  -1.3811  -1.3187  -1.2963  -1.2378
    -1.2157  -1.1985  -1.1835  -1.1589  -1.1518  -1.1295  -1.1179  -1.1041
    -1.0786  -1.0659  -1.0469  -1.0122  -1.0023  -0.9880  -0.9797  -0.9527
    -0.9322  -0.9177  -0.8933  -0.8786  -0.7218  -0.6817  -0.6315  -0.5787
    -0.5655  -0.4737  -0.4566  -0.4466  -0.3845  -0.3729  -0.3627  -0.3413
    -0.3100  -0.2959  -0.2420  -0.2205  -0.1930  -0.1454  -0.1241  -0.0887
    -0.0669  -0.0540   0.0506   0.1175   0.1712   0.1821   0.2065   0.2335
     0.2872   0.2935   0.3166   0.3374   0.3598   0.3800   0.4094   0.4148
     0.4980   0.5060   0.5570   0.5716   0.5849   0.5915   0.6169   0.6262
     0.6913   0.7759   0.8384   0.8874   0.9476   0.9788   1.0272   1.0510
     1.1106   1.1327   1.1714   1.2015   1.2433   1.3031   1.3203   1.3557
     1.3605   1.3889   1.4062   1.4367   1.4682   1.4977   1.5418   1.5540
     1.5622   1.5712   1.6104   1.6273   1.6365   1.6820   1.7692   1.7969
     1.8368   1.8433   1.8529   1.8845   1.9317   2.0134   2.1345   2.2666
     2.9711   2.9739   3.2026   3.2493   3.3487   3.3729   3.3858   3.4868
     3.9590   3.9867   4.0202   4.4492   4.4797   4.5366   4.5824   4.6008
     4.8546   4.9304   5.0104   5.1376   5.3985   5.4253   5.5000   6.0302
     6.0494   6.0928   6.3098

          k = 0.2000-0.3464 0.0000 ( 92414 PWs)   bands (ev):

   -19.2239 -11.8810  -7.8957  -6.7871  -5.6062  -5.5697  -5.5300  -5.4111
    -4.9754  -4.4991  -4.4838  -4.4717  -4.4586  -4.4253  -4.4136  -4.4014
    -4.3927  -4.3023  -4.2926  -3.9271  -3.9164  -3.9027  -3.8987  -3.8438
    -3.8177  -3.6839  -3.6686  -3.6522  -3.6465  -3.6340  -3.5513  -3.5079
    -3.4965  -3.4877  -3.4758  -3.4150  -3.4081  -3.3806  -3.3455  -3.3259
    -3.2712  -3.2222  -3.0249  -2.9782  -2.9059  -2.8844  -2.8711  -2.8576
    -2.8368  -2.8131  -2.7877  -2.7677  -2.7556  -2.6087  -2.5955  -2.5747
    -2.5126  -2.4848  -2.4313  -2.4195  -2.4077  -2.3476  -2.3320  -2.1739
    -2.1504  -2.1370  -2.0784  -2.0472  -2.0247  -2.0169  -2.0002  -1.9529
    -1.9356  -1.8386  -1.7966  -1.7718  -1.7403  -1.7272  -1.6907  -1.6801
    -1.6556  -1.6408  -1.5877  -1.5790  -1.4873  -1.4816  -1.4633  -1.4444
    -1.4381  -1.4230  -1.3980  -1.3842  -1.3644  -1.3213  -1.2966  -1.2786
    -1.2266  -1.2079  -1.1830  -1.1586  -1.1210  -1.1043  -1.0849  -1.0723
    -1.0461  -1.0358  -1.0200  -0.9923  -0.9857  -0.9675  -0.9459  -0.9271
    -0.9077  -0.8307  -0.8034  -0.7742  -0.7467  -0.7001  -0.6900  -0.6443
    -0.5931  -0.4993  -0.4692  -0.3699  -0.3390  -0.3204  -0.3088  -0.2873
    -0.2641  -0.2472  -0.2364  -0.2098  -0.1908  -0.1396  -0.1210  -0.0978
     0.0096   0.0765   0.1098   0.1189   0.1417   0.1626   0.1909   0.2172
     0.3079   0.3234   0.3512   0.3789   0.4020   0.4647   0.5047   0.5328
     0.5456   0.5773   0.6135   0.6385   0.6463   0.6482   0.6603   0.6778
     0.6839   0.7072   0.7450   0.8472   0.8873   0.9214   1.0031   1.0243
     1.0931   1.1459   1.2009   1.2109   1.2379   1.2703   1.3270   1.3355
     1.3498   1.3656   1.3849   1.4002   1.4106   1.4328   1.4456   1.4599
     1.4874   1.5377   1.5589   1.5748   1.6078   1.6277   1.6421   1.6783
     1.7269   1.8332   1.8703   1.8942   1.9380   1.9582   1.9690   2.0886
     2.1055   2.1964   2.6217   2.6366   2.7336   3.1606   3.1837   3.2212
     3.3371   3.9014   3.9190   4.0913   4.1296   4.1607   4.4096   4.8080
     5.2760   5.3642   5.4759   5.5231   5.9827   6.0319   6.0964   6.1313
     6.1823   6.2967   6.3609

          k = 0.4000-0.2309 0.0000 ( 92390 PWs)   bands (ev):

   -19.2239 -11.8809  -7.8955  -6.6495  -6.0177  -5.5061  -5.3521  -5.0131
    -4.9529  -4.9207  -4.7978  -4.5740  -4.4295  -4.3162  -4.2742  -4.2332
    -4.2250  -4.0648  -4.0377  -4.0150  -3.9961  -3.9895  -3.8852  -3.8524
    -3.8417  -3.7976  -3.7810  -3.7423  -3.7141  -3.6597  -3.6521  -3.6406
    -3.4026  -3.3970  -3.3905  -3.3740  -3.3691  -3.3574  -3.2650  -3.1612
    -3.1370  -3.1166  -3.0973  -3.0750  -3.0559  -2.9698  -2.8531  -2.8105
    -2.7940  -2.7781  -2.7600  -2.7333  -2.6957  -2.6652  -2.6416  -2.6300
    -2.5872  -2.5583  -2.4448  -2.4301  -2.4143  -2.3796  -2.2921  -2.2732
    -2.2180  -2.2162  -2.1949  -2.0608  -2.0419  -1.9887  -1.9682  -1.9586
    -1.8996  -1.8819  -1.8578  -1.7954  -1.7438  -1.7176  -1.6974  -1.6452
    -1.6231  -1.6060  -1.5987  -1.5845  -1.5503  -1.5156  -1.5060  -1.4879
    -1.4730  -1.4695  -1.4588  -1.4522  -1.4269  -1.3636  -1.3316  -1.3216
    -1.3068  -1.2947  -1.2803  -1.2525  -1.1489  -1.1301  -1.1007  -1.0473
    -1.0385  -1.0281  -1.0138  -0.9731  -0.9476  -0.8757  -0.8641  -0.8469
    -0.7870  -0.7635  -0.7407  -0.7329  -0.6055  -0.5809  -0.5730  -0.5088
    -0.4510  -0.4242  -0.4128  -0.4028  -0.3889  -0.3816  -0.3649  -0.3018
    -0.2862  -0.2739  -0.2603  -0.2443  -0.2055  -0.1947  -0.1636  -0.1327
    -0.0776  -0.0362  -0.0149   0.0191   0.0512   0.1306   0.1581   0.1736
     0.2687   0.2825   0.3646   0.4132   0.4403   0.4749   0.4905   0.5099
     0.5256   0.5521   0.6057   0.6119   0.6470   0.6689   0.6941   0.7616
     0.7768   0.7998   0.8164   0.8395   0.8491   0.9431   1.0031   1.0443
     1.0599   1.0816   1.1132   1.1200   1.1480   1.2086   1.2288   1.2536
     1.3229   1.3327   1.3405   1.3979   1.4059   1.4434   1.4824   1.4964
     1.5457   1.5554   1.5685   1.5765   1.5864   1.5975   1.6355   1.7616
     1.7778   1.8019   1.8093   1.8283   1.9827   1.9973   2.0467   2.4493
     2.5006   2.5718   2.8582   2.8696   2.9339   3.2544   3.2801   3.5791
     3.6015   4.0716   4.0827   4.1071   4.3136   4.3742   4.4120   4.5127
     4.7151   4.7422   4.8376   5.3768   5.5344   5.8795   5.9781   6.2716
     6.3872   6.4852   6.5583

          k = 0.4000-0.0000 0.0000 ( 92414 PWs)   bands (ev):

   -19.2239 -11.8809  -7.8965  -6.7851  -5.5988  -5.5637  -5.5164  -5.4319
    -4.9783  -4.4914  -4.4841  -4.4714  -4.4555  -4.4388  -4.4176  -4.4042
    -4.3933  -4.3025  -4.2917  -3.9197  -3.9115  -3.8978  -3.8941  -3.8289
    -3.8179  -3.6917  -3.6609  -3.6524  -3.6416  -3.6325  -3.5800  -3.5224
    -3.5037  -3.4937  -3.4756  -3.4199  -3.4038  -3.3738  -3.3466  -3.3241
    -3.2732  -3.1828  -3.0501  -2.9602  -2.9083  -2.8930  -2.8787  -2.8465
    -2.8381  -2.8213  -2.7794  -2.7603  -2.7517  -2.6310  -2.6087  -2.5972
    -2.5079  -2.4767  -2.4340  -2.4271  -2.3942  -2.3495  -2.3246  -2.1928
    -2.1639  -2.1509  -2.0967  -2.0694  -2.0295  -2.0143  -2.0004  -1.9480
    -1.9398  -1.8354  -1.7850  -1.7650  -1.7524  -1.7223  -1.6940  -1.6651
    -1.6555  -1.6239  -1.6092  -1.5720  -1.5014  -1.4781  -1.4648  -1.4510
    -1.4343  -1.4265  -1.3989  -1.3816  -1.3387  -1.3023  -1.2894  -1.2693
    -1.2219  -1.2123  -1.1952  -1.1571  -1.1090  -1.0884  -1.0762  -1.0713
    -1.0482  -1.0227  -1.0011  -0.9934  -0.9881  -0.9839  -0.9386  -0.9217
    -0.8929  -0.8385  -0.8146  -0.7873  -0.7372  -0.6943  -0.6792  -0.6740
    -0.5891  -0.5076  -0.4718  -0.3627  -0.3421  -0.3214  -0.2992  -0.2796
    -0.2729  -0.2483  -0.2329  -0.2135  -0.1900  -0.1514  -0.1283  -0.0866
     0.0229   0.0901   0.1091   0.1226   0.1462   0.1716   0.1937   0.2197
     0.3079   0.3277   0.3542   0.3856   0.4049   0.4642   0.4945   0.5438
     0.5514   0.5737   0.6184   0.6242   0.6386   0.6508   0.6696   0.6756
     0.6824   0.6963   0.7665   0.8410   0.8905   0.9373   0.9955   1.0206
     1.0815   1.1468   1.1936   1.2109   1.2249   1.2677   1.3190   1.3331
     1.3423   1.3661   1.3818   1.4050   1.4145   1.4447   1.4562   1.4721
     1.4854   1.5387   1.5619   1.5949   1.6144   1.6249   1.6448   1.6801
     1.7271   1.8043   1.8489   1.8646   1.9418   1.9608   1.9673   2.0916
     2.1046   2.1860   2.6273   2.6389   2.7618   3.1509   3.1677   3.2229
     3.3131   3.9097   3.9222   4.0850   4.1108   4.1590   4.4212   4.8032
     5.2779   5.3524   5.4523   5.5358   5.8959   6.0732   6.1131   6.1377
     6.1602   6.3046   6.4088

          k = 0.4000 0.2309 0.0000 ( 92390 PWs)   bands (ev):

   -19.2239 -11.8809  -7.8957  -6.6496  -6.0184  -5.5031  -5.3551  -5.0165
    -4.9492  -4.9166  -4.8014  -4.5811  -4.4299  -4.3193  -4.2762  -4.2315
    -4.2201  -4.0627  -4.0374  -4.0168  -3.9970  -3.9913  -3.8905  -3.8506
    -3.8387  -3.8005  -3.7811  -3.7441  -3.7197  -3.6601  -3.6506  -3.6431
    -3.4037  -3.3920  -3.3846  -3.3737  -3.3685  -3.3526  -3.2552  -3.1577
    -3.1326  -3.1129  -3.0948  -3.0811  -3.0584  -2.9626  -2.8560  -2.8139
    -2.7959  -2.7830  -2.7629  -2.7290  -2.6883  -2.6600  -2.6470  -2.6308
    -2.5876  -2.5514  -2.4431  -2.4281  -2.4126  -2.3775  -2.2824  -2.2677
    -2.2246  -2.2111  -2.1895  -2.0564  -2.0109  -1.9930  -1.9732  -1.9609
    -1.9020  -1.8813  -1.8574  -1.8047  -1.7601  -1.7302  -1.6955  -1.6661
    -1.6223  -1.6076  -1.5993  -1.5797  -1.5533  -1.5181  -1.5010  -1.4917
    -1.4753  -1.4692  -1.4659  -1.4495  -1.4249  -1.3796  -1.3299  -1.3165
    -1.3036  -1.2908  -1.2611  -1.2535  -1.1556  -1.1401  -1.1075  -1.0577
    -1.0455  -1.0231  -1.0104  -0.9851  -0.9599  -0.8856  -0.8619  -0.8470
    -0.7855  -0.7653  -0.7437  -0.7144  -0.6064  -0.5787  -0.5701  -0.5062
    -0.4575  -0.4243  -0.4120  -0.3874  -0.3787  -0.3774  -0.3636  -0.3037
    -0.2866  -0.2688  -0.2642  -0.2458  -0.2076  -0.1925  -0.1762  -0.1248
    -0.0826  -0.0415  -0.0239   0.0291   0.0526   0.1273   0.1536   0.1694
     0.2691   0.2801   0.3692   0.4165   0.4397   0.4723   0.4864   0.5048
     0.5241   0.5563   0.5976   0.6105   0.6492   0.6707   0.6951   0.7645
     0.7816   0.7958   0.8194   0.8403   0.8470   0.9367   1.0016   1.0408
     1.0608   1.0791   1.1094   1.1170   1.1763   1.2069   1.2354   1.2512
     1.3207   1.3283   1.3454   1.3891   1.4051   1.4373   1.4795   1.4997
     1.5449   1.5606   1.5730   1.5839   1.5916   1.5991   1.6158   1.7614
     1.7797   1.8081   1.8141   1.8407   1.9907   2.0008   2.0468   2.4640
     2.4926   2.5575   2.8565   2.8708   2.9370   3.2553   3.2782   3.5830
     3.6053   4.0708   4.0839   4.1153   4.3081   4.3718   4.4072   4.5189
     4.7098   4.7475   4.8268   5.3863   5.5386   5.8786   5.9716   6.2423
     6.4016   6.4934   6.5714

          k = 0.4000-0.6928 0.0000 ( 92406 PWs)   bands (ev):

   -19.2239 -11.8810  -7.8944  -6.2632  -6.2462  -5.6632  -5.4759  -5.0347
    -5.0097  -4.9308  -4.4915  -4.4710  -4.3510  -4.3146  -4.2096  -4.1999
    -4.1045  -4.0911  -3.9936  -3.9875  -3.9709  -3.9422  -3.9250  -3.9214
    -3.9145  -3.7820  -3.7643  -3.7568  -3.7369  -3.7051  -3.6346  -3.5592
    -3.5159  -3.4650  -3.3856  -3.3569  -3.3536  -3.3387  -3.3187  -3.2673
    -3.2237  -3.1823  -3.1198  -3.1131  -2.9876  -2.9356  -2.9177  -2.8429
    -2.7921  -2.7384  -2.7279  -2.7081  -2.6028  -2.5720  -2.5347  -2.5091
    -2.4911  -2.4630  -2.4430  -2.4133  -2.3275  -2.3054  -2.2946  -2.2777
    -2.2683  -2.2582  -2.2453  -2.2058  -2.1836  -2.0791  -2.0527  -2.0181
    -1.9721  -1.8979  -1.8759  -1.8409  -1.8241  -1.7969  -1.7674  -1.7407
    -1.7319  -1.6816  -1.6549  -1.6394  -1.6089  -1.5780  -1.5564  -1.5193
    -1.4755  -1.4455  -1.4159  -1.4051  -1.3964  -1.3067  -1.2689  -1.2450
    -1.2091  -1.1939  -1.1892  -1.1530  -1.1369  -1.1268  -1.1127  -1.0796
    -1.0626  -1.0414  -1.0321  -1.0127  -0.9935  -0.9908  -0.9833  -0.9626
    -0.9492  -0.9185  -0.8755  -0.8582  -0.7541  -0.6592  -0.6042  -0.5786
    -0.5660  -0.4744  -0.4616  -0.4413  -0.4201  -0.3815  -0.3552  -0.3391
    -0.3179  -0.3098  -0.2492  -0.2198  -0.1948  -0.1562  -0.1350  -0.0896
    -0.0568  -0.0235   0.0533   0.1140   0.1705   0.1900   0.2094   0.2231
     0.2879   0.2959   0.3250   0.3463   0.3569   0.3823   0.4091   0.4269
     0.4894   0.5065   0.5451   0.5767   0.5866   0.6023   0.6254   0.6420
     0.7031   0.7658   0.8567   0.8843   0.9420   0.9889   1.0220   1.0410
     1.0742   1.1458   1.1710   1.2014   1.2347   1.2976   1.3341   1.3471
     1.3881   1.3935   1.4083   1.4245   1.4624   1.4895   1.5375   1.5543
     1.5706   1.5995   1.6115   1.6148   1.6368   1.6797   1.7779   1.7939
     1.8122   1.8231   1.8440   1.8866   1.9301   2.0111   2.1473   2.2487
     2.9696   2.9745   3.2009   3.2587   3.3530   3.3720   3.3952   3.5049
     3.9470   3.9815   3.9987   4.4437   4.4834   4.5434   4.5824   4.6048
     4.7889   4.8869   5.0011   5.1856   5.3650   5.4435   5.5390   6.0241
     6.0453   6.1018   6.2903

          k = 0.4000-0.4619 0.0000 ( 92406 PWs)   bands (ev):

   -19.2239 -11.8810  -7.8943  -6.2651  -6.2437  -5.6628  -5.4784  -5.0363
    -5.0112  -4.9234  -4.4904  -4.4681  -4.3509  -4.3164  -4.2121  -4.2023
    -4.1051  -4.0881  -3.9894  -3.9844  -3.9720  -3.9491  -3.9244  -3.9180
    -3.9120  -3.7823  -3.7645  -3.7538  -3.7323  -3.7077  -3.6343  -3.5548
    -3.5215  -3.4715  -3.3775  -3.3664  -3.3516  -3.3410  -3.3196  -3.2794
    -3.2282  -3.1760  -3.1261  -3.1055  -2.9961  -2.9303  -2.9173  -2.8349
    -2.7929  -2.7453  -2.7241  -2.7117  -2.5969  -2.5709  -2.5346  -2.5138
    -2.4934  -2.4666  -2.4502  -2.4132  -2.3279  -2.3061  -2.2904  -2.2828
    -2.2693  -2.2589  -2.2471  -2.2076  -2.1794  -2.1050  -2.0526  -2.0155
    -1.9817  -1.8942  -1.8750  -1.8314  -1.8174  -1.7960  -1.7713  -1.7317
    -1.7231  -1.6743  -1.6462  -1.6308  -1.6050  -1.5798  -1.5639  -1.5162
    -1.4837  -1.4436  -1.4217  -1.4011  -1.3955  -1.3027  -1.2637  -1.2394
    -1.2192  -1.2085  -1.1886  -1.1503  -1.1371  -1.1167  -1.1090  -1.0761
    -1.0610  -1.0421  -1.0345  -1.0126  -0.9928  -0.9866  -0.9807  -0.9565
    -0.9524  -0.9053  -0.8722  -0.8520  -0.7773  -0.6567  -0.6037  -0.5804
    -0.5634  -0.4769  -0.4633  -0.4509  -0.4294  -0.3744  -0.3539  -0.3383
    -0.3216  -0.3043  -0.2527  -0.2240  -0.1929  -0.1618  -0.1241  -0.0921
    -0.0515  -0.0200   0.0562   0.1139   0.1654   0.1896   0.2071   0.2186
     0.2898   0.2990   0.3270   0.3446   0.3570   0.3924   0.4072   0.4244
     0.4905   0.5038   0.5452   0.5756   0.5866   0.6017   0.6271   0.6455
     0.7033   0.7684   0.8583   0.8881   0.9446   0.9793   1.0245   1.0357
     1.0592   1.1570   1.1699   1.1996   1.2272   1.2973   1.3368   1.3470
     1.3908   1.3935   1.4130   1.4203   1.4626   1.5047   1.5340   1.5543
     1.5706   1.6026   1.6081   1.6164   1.6453   1.6811   1.7788   1.7926
     1.8089   1.8209   1.8348   1.8823   1.9195   2.0105   2.1445   2.2476
     2.9700   2.9747   3.1991   3.2540   3.3528   3.3714   3.4067   3.5050
     3.9484   3.9820   3.9962   4.4471   4.4864   4.5424   4.5841   4.6042
     4.7610   4.8842   5.0053   5.1869   5.3763   5.4406   5.5389   6.0267
     6.0590   6.1046   6.3000

     the Fermi energy is     1.5976 ev

!    total energy              =  -27838.33526709 Ry

     total all-electron energy =  -1326949.475764 Ry
     estimated scf accuracy    <       0.00000071 Ry
     smearing contrib. (-TS)   =       0.00069181 Ry
     internal energy E=F+TS    =  -27838.33595890 Ry

     The total energy is F=E-TS. E is the sum of the following terms:
     one-electron contribution =  -29167.67657130 Ry
     hartree contribution      =   14885.60971199 Ry
     xc contribution           =    -909.56053525 Ry
     ewald contribution        =   12850.49320214 Ry
     one-center paw contrib.   =  -25497.20176649 Ry

     convergence has been achieved in  20 iterations

     negative rho (up, down):  1.329E-02 0.000E+00

     Forces acting on atoms (cartesian axes, Ry/au):

     atom    1 type  1   force =     0.00086526    0.00045924   -0.00320321
     atom    2 type  1   force =     0.00022853   -0.00092175   -0.00890580
     atom    3 type  1   force =    -0.00120771    0.00044262   -0.00327861
     atom    4 type  1   force =     0.00010402   -0.00028957   -0.00298066
     atom    5 type  1   force =    -0.00029547   -0.00028398   -0.00294875
     atom    6 type  1   force =    -0.00015296    0.00079297   -0.00362865
     atom    7 type  1   force =    -0.00002577    0.00088146   -0.00305812
     atom    8 type  1   force =     0.00033947    0.00122575   -0.00435312
     atom    9 type  1   force =    -0.00068892    0.00165578   -0.00370564
     atom   10 type  1   force =    -0.00184868    0.00037178    0.00294027
     atom   11 type  1   force =     0.00231316   -0.00002233    0.00363598
     atom   12 type  1   force =     0.00031792    0.00104518    0.00947155
     atom   13 type  1   force =     0.00028387   -0.00041639    0.00146939
     atom   14 type  1   force =     0.00163615   -0.00250465    0.00650020
     atom   15 type  1   force =    -0.00094123   -0.00251680    0.00658401
     atom   16 type  1   force =    -0.00070609   -0.00073541    0.00119428
     atom   17 type  1   force =     0.00114283   -0.00069105   -0.00016135
     atom   18 type  1   force =     0.00085754   -0.00056296    0.00215684
     atom   19 type  1   force =     0.00035623    0.00001523    0.00065660
     atom   20 type  1   force =     0.00027785    0.00036304    0.00036622
     atom   21 type  1   force =    -0.00024071    0.00006515    0.00023190
     atom   22 type  1   force =     0.00021025    0.00013980   -0.00029194
     atom   23 type  1   force =    -0.00026862    0.00003958   -0.00036552
     atom   24 type  1   force =     0.00013564    0.00030327    0.00053516
     atom   25 type  1   force =     0.00015343   -0.00005748    0.00024697
     atom   26 type  1   force =    -0.00032107    0.00017039   -0.00010883
     atom   27 type  1   force =     0.00037011    0.00024555   -0.00012349
     atom   28 type  1   force =     0.00003799    0.00056423    0.00014183
     atom   29 type  1   force =    -0.00002179    0.00045721    0.00027562
     atom   30 type  1   force =     0.00005669   -0.00004698   -0.00010324
     atom   31 type  1   force =     0.00024395    0.00037771    0.00014688
     atom   32 type  1   force =    -0.00058016    0.00056596    0.00027705
     atom   33 type  1   force =     0.00017849    0.00031394   -0.00054526
     atom   34 type  1   force =     0.00007089    0.00046976   -0.00001193
     atom   35 type  1   force =     0.00033308    0.00035922   -0.00014803
     atom   36 type  1   force =    -0.00022956    0.00007512    0.00014031
     atom   37 type  2   force =     0.00022601    0.00023553    0.00092868
     atom   38 type  3   force =    -0.00161069   -0.00170123    0.00079683
     atom   39 type  3   force =    -0.00371347    0.00284559    0.00864197
     atom   40 type  4   force =    -0.00005469    0.00001002   -0.00032979
     atom   41 type  4   force =    -0.00043577    0.00072203    0.00027643
     atom   42 type  4   force =     0.00260399   -0.00446253   -0.00936303

     Total force =     0.014958     Total SCF correction =     0.001887
     SCF correction compared to forces is large: reduce conv_thr to get better values

     negative rho (up, down):  1.329E-02 0.000E+00

     negative rho (up, down):  1.329E-02 0.000E+00

     negative rho (up, down):  1.329E-02 0.000E+00

     negative rho (up, down):  1.329E-02 0.000E+00

     negative rho (up, down):  1.329E-02 0.000E+00

     negative rho (up, down):  1.329E-02 0.000E+00

     negative rho (up, down):  1.329E-02 0.000E+00

     negative rho (up, down):  1.329E-02 0.000E+00

     negative rho (up, down):  1.329E-02 0.000E+00

     negative rho (up, down):  1.329E-02 0.000E+00

     negative rho (up, down):  1.329E-02 0.000E+00

     negative rho (up, down):  1.329E-02 0.000E+00

     negative rho (up, down):  1.329E-02 0.000E+00

     negative rho (up, down):  1.329E-02 0.000E+00

     negative rho (up, down):  1.329E-02 0.000E+00

     negative rho (up, down):  1.329E-02 0.000E+00

     negative rho (up, down):  1.329E-02 0.000E+00

     negative rho (up, down):  1.329E-02 0.000E+00

     negative rho (up, down):  1.329E-02 0.000E+00

     negative rho (up, down):  1.329E-02 0.000E+00

     negative rho (up, down):  1.329E-02 0.000E+00

     negative rho (up, down):  1.329E-02 0.000E+00

     negative rho (up, down):  1.329E-02 0.000E+00

     negative rho (up, down):  1.329E-02 0.000E+00

     negative rho (up, down):  1.329E-02 0.000E+00

     negative rho (up, down):  1.329E-02 0.000E+00

     negative rho (up, down):  1.329E-02 0.000E+00

     negative rho (up, down):  1.329E-02 0.000E+00

     negative rho (up, down):  1.329E-02 0.000E+00

     negative rho (up, down):  1.329E-02 0.000E+00

     negative rho (up, down):  1.329E-02 0.000E+00

     negative rho (up, down):  1.329E-02 0.000E+00

     negative rho (up, down):  1.329E-02 0.000E+00

     negative rho (up, down):  1.329E-02 0.000E+00
 BEEFens 2000 ensemble energies
             -0.609003380842716E+02
             -0.362064353052506E+01
             -0.158751667094588E+02
              0.430971779056529E+02
             -0.221960362420266E+02
             -0.205901230286964E+02
             -0.354008007265695E+02
             -0.868283747651382E+02
             -0.466461261213460E+02
             -0.474167385120031E+02
             -0.370603992757928E+02
              0.231131014638119E+01
              0.407618884135647E+01
              0.760834083254383E+01
              0.266652078553773E+01
              0.476640487150560E+02
             -0.209504675978008E+02
             -0.230607075346691E+02
              0.193638002420046E+02
             -0.112792400565951E+03
              0.538412269105146E+02
             -0.290556673372056E+02
             -0.335905685896880E+01
             -0.114498022500814E+02
             -0.883164691117918E+01
             -0.465015178679991E+01
              0.885923893052956E+02
             -0.188038569957974E+02
             -0.903106362669530E+01
             -0.520385464549938E+02
              0.818000308892806E+02
             -0.187461447043794E+02
             -0.376335423301796E+02
              0.249944401775625E+02
             -0.285525732735761E+01
              0.164944888726060E+02
             -0.485899045233322E+01
              0.108214154982288E+02
              0.289553941567046E+02
             -0.103627938162513E+03
              0.560408413508417E+02
              0.142905213345270E+02
             -0.176418077870051E+01
             -0.362590697043010E+02
              0.123612204298674E+02
             -0.147527285587254E+02
              0.400057187607051E+02
              0.366133305427601E+02
             -0.308866499479553E+02
             -0.276093636594746E+02
             -0.329417599750334E+02
             -0.353492085299621E+02
              0.137051310967930E+02
             -0.492663906300151E+02
              0.116168424555813E+02
              0.625370191290865E+02
              0.638005590937819E+02
              0.357104575548942E+02
              0.154689703315798E+02
              0.271701700147013E+02
              0.894828735179979E+02
              0.213167130377215E+02
             -0.550539276486272E+02
             -0.157493881526689E+02
             -0.236886737823492E+02
              0.631938164282415E+02
             -0.776028494687826E+02
             -0.673936842974013E+02
             -0.260661465330415E+02
             -0.655296206683124E+01
             -0.472191460420252E+02
              0.271708453385876E+02
              0.805051265463396E+01
              0.873002074117340E+01
             -0.398692374629755E+02
             -0.348067146631620E+02
             -0.544028552215506E+02
              0.391437430368038E+02
             -0.297217161467899E+02
              0.266439056939993E+02
             -0.719299026874778E+01
             -0.318980886997803E+02
             -0.578035917206452E+02
             -0.177121975017269E+02
             -0.909356520716869E+01
             -0.125176962520921E+02
              0.413740498792461E+02
              0.685613648024773E+02
             -0.387228055172456E+02
             -0.797463535966012E+02
             -0.220329604664819E+02
              0.111895358645556E+03
             -0.594573035632236E+02
              0.357234034925220E+02
             -0.961455760002252E+01
             -0.665312637330569E+02
              0.255327930368949E+02
              0.399264799620684E+02
             -0.199376522867492E+02
              0.401373878184056E+02
             -0.296825073809086E+02
             -0.480266047388272E+02
              0.869268347310914E+02
              0.455511680824216E+02
              0.337383767374331E+02
              0.146865560071400E+02
              0.206612996451375E+02
              0.859392452092422E+02
             -0.257734961289706E+02
              0.789818640460021E+01
             -0.142889581111412E+03
              0.181730889276959E+02
             -0.718554847379916E+02
              0.151476387611735E+02
              0.205408454054338E+02
             -0.334224375936112E+02
             -0.558997679241708E+02
              0.653818532563162E+01
             -0.305268715379975E+02
              0.309350596730530E+02
             -0.531625752318912E+02
              0.169003502316446E+01
             -0.358241684965557E+02
             -0.424589852873288E+01
             -0.102965384575893E+01
              0.181991468297489E+02
              0.142260759303633E+01
             -0.653522239673600E+01
              0.592768491110362E+02
              0.911562066497245E+02
              0.485889446163660E+02
              0.832812146381895E+02
             -0.115591500035987E+02
              0.143281376528277E+02
              0.543030832803888E+02
             -0.110833410543243E+02
             -0.738616620021228E+02
             -0.385631883952503E+02
             -0.523556075047733E+02
             -0.277759516145683E+02
              0.328215439281790E+02
             -0.117204619395858E+03
             -0.187781991928517E+02
              0.415608219907021E+02
             -0.387569631817935E+02
             -0.366453973064347E+02
              0.546304456862351E+02
              0.402342999363399E+02
             -0.355179232874712E+02
              0.138805992834298E+02
             -0.274187038484457E+02
              0.344425242212787E+02
              0.446341644389980E+01
              0.211518757990031E+02
             -0.887803469098111E+02
             -0.481889726682355E+02
             -0.999424407526328E+01
              0.320196026817377E+01
             -0.368274409996485E+02
              0.106413586858442E+03
             -0.231553603823106E+02
             -0.399806980441318E+02
              0.390102036424394E+02
             -0.495814336716876E+02
             -0.364584014524924E+02
              0.325969607242391E+02
              0.124939501169019E+02
              0.165151829409315E+02
              0.117120791874823E+02
             -0.133221625837816E+02
              0.225702371699606E+02
              0.592239390263617E+02
             -0.312593240758339E+02
              0.163142916897374E+02
              0.937738458209800E+02
              0.341915983142832E+02
             -0.731785151833674E+01
             -0.189282529356195E+02
              0.153901790961972E+03
             -0.164860783876746E+02
              0.364600313195276E+02
              0.195423959237260E+02
              0.362618381067428E+02
              0.895179282183004E+02
              0.544557256125787E+02
             -0.240729414655230E+01
              0.228605881042331E+02
              0.486587017137107E+02
              0.364788778958704E+02
             -0.527723417296338E+02
              0.939370341201737E+02
             -0.828767711026955E+02
             -0.198468272653222E+02
              0.584772818583826E+02
              0.681609110487267E+01
              0.791055565105501E+01
              0.341849548052306E+02
              0.299862595272556E+02
              0.354891904708373E+02
             -0.639796800732225E+02
              0.288261719829200E+01
             -0.298511655268546E+02
             -0.872238950390744E+01
             -0.146719381800278E+01
             -0.726987209297580E+01
             -0.417146245980229E+01
              0.862330529446263E+02
             -0.101329249631051E+02
             -0.277285151392292E+02
             -0.496899760774804E+01
              0.140380175321532E+02
             -0.566094904275782E+02
             -0.409175260198204E+02
             -0.383290666364513E+02
             -0.632416577950846E+02
             -0.170210302371200E+02
             -0.448917425267854E+02
              0.164005368893951E+02
             -0.238622401988961E+01
             -0.104896182784695E+02
             -0.937004476544539E+01
              0.809639227887834E+01
             -0.243213479789820E+02
              0.691763537827566E+02
             -0.810332647237649E+02
             -0.141624443858739E+02
             -0.174515694866753E+02
              0.182538815083840E+02
              0.215217516582060E+02
             -0.465401858329242E+02
             -0.202334719308286E+02
              0.442474927755108E+02
             -0.276870194767383E+02
              0.187533670485414E+02
              0.384073317918664E+02
             -0.322991054312502E+01
              0.114526148966960E+03
             -0.230435639965597E+02
             -0.342070686661858E+02
              0.579337141719128E+01
             -0.229141647312354E+02
              0.529468838318999E+02
             -0.338860083201645E+02
              0.106918479011939E+02
              0.642456207476542E+02
             -0.126809237986526E+02
              0.120656214600677E+03
              0.126326322959742E+03
             -0.652225428675604E+02
              0.592640912196562E+02
              0.167301127435827E+02
             -0.519786634612842E+02
              0.216686402608341E+02
              0.355471682633965E+02
              0.364293590432906E+02
              0.135147013343735E+01
              0.160333460055250E+02
              0.698534925964017E+02
             -0.247776522218990E+02
              0.181858112828653E+02
              0.741543699528567E+02
             -0.373835097984564E+02
             -0.130485015700776E+02
              0.510633071110617E+02
              0.298396489253301E+02
              0.782862103180819E+02
              0.223920421900074E+02
              0.629778962917595E+01
              0.281341759693973E+02
              0.384783231214765E+02
             -0.473806348463994E+02
              0.334687965815056E+01
              0.130808454069297E+02
              0.114099568864049E+02
              0.221406566461956E+02
             -0.577110457384428E+02
              0.367101144957365E+02
             -0.445357716045185E+02
             -0.348590953886046E+02
              0.178835949710293E+02
             -0.181808402799734E+02
              0.557087785768202E+02
             -0.256547898266637E+02
              0.267875345173282E+02
              0.369255703864193E+02
              0.831920583991176E+02
              0.576593038857375E+02
              0.463609450295482E+02
             -0.105613202941358E+02
             -0.394432438066463E+01
             -0.333286144679793E+02
              0.753556569033187E+02
              0.799952050835673E+02
              0.363294727948952E+02
             -0.192958985983775E+02
              0.513535243256119E+02
             -0.162862791676791E+02
              0.215408843354328E+02
              0.616870628209040E+02
              0.212572513145943E+01
             -0.104704061627604E+02
             -0.283624527549289E+02
             -0.513857233149106E+02
              0.948804051763847E+02
              0.441677876590636E+02
             -0.561248764222896E+02
             -0.969847362035728E+01
              0.250825039572845E+02
             -0.100068310651464E+02
              0.594401786592956E+02
              0.152531232114899E+02
              0.801985933785093E+02
              0.280837274503565E+02
             -0.264662494291083E+02
              0.249549533519020E+02
             -0.503905988419405E+01
             -0.324482132224137E+02
              0.133772566105305E+02
              0.206145187743798E+02
              0.936232015808205E+02
              0.800169708528988E+02
              0.553030593029621E+02
              0.732984566020264E+02
              0.804488808841268E+01
             -0.274623322684652E+02
              0.163624031160250E+02
             -0.369154928024880E+02
             -0.478342141459945E+02
             -0.565579940058135E+02
             -0.267694239843383E+02
             -0.110087461842610E+03
             -0.292715157684230E+02
             -0.840445700813939E+02
              0.210917663567638E+02
             -0.478696079285724E+02
              0.398562649505920E+02
             -0.945022209628120E+02
             -0.331164021327351E+02
              0.549901682568614E+02
              0.208373491299153E+02
             -0.833874004986612E+02
              0.632896517721352E+02
             -0.257776858111396E+02
              0.514400185134417E+02
             -0.243391540960810E+02
             -0.754180803204024E+02
              0.112481757132317E+02
             -0.613702913903257E+02
             -0.168371021684887E+02
             -0.149919905089458E+01
              0.419688959578082E+02
              0.127459770890898E+03
             -0.463240691878788E+02
             -0.363790329974657E+02
             -0.998048513955951E+00
             -0.130756476152565E+02
             -0.825393256035346E+02
             -0.598782090332988E+02
              0.518854399311352E+02
             -0.289712646010549E+02
              0.169985286820155E+02
             -0.491122991790828E+02
             -0.132561234644236E+02
             -0.438674744434811E+02
              0.567341314689928E+02
              0.151282423606177E+02
             -0.232453839730407E+02
             -0.127594993844690E+02
              0.672163656366892E+01
             -0.622686631963006E+01
              0.443054606127944E+02
             -0.252933214862489E+02
              0.282664021463711E+01
              0.340645642471933E+02
              0.171712330871514E+02
             -0.160697104422709E+02
              0.156815375045170E+03
              0.540215523530767E+02
              0.118785941637741E+01
              0.161802118995912E+02
             -0.617122438486787E+02
              0.316181400786469E+02
             -0.724526559303713E+02
             -0.253176813897348E+02
             -0.524716924724897E+02
             -0.220742738508566E+02
              0.571285520516033E+02
             -0.539133707454477E+02
              0.161798129692292E+02
             -0.410345723589728E+01
              0.387726809474313E+01
             -0.435045533631467E+02
             -0.479828387528339E+02
             -0.403310380911091E+01
             -0.426163613089171E+02
             -0.217845589018331E+02
             -0.439929595111429E+02
             -0.119561918094984E+02
             -0.360244079171809E+02
             -0.518316393880103E+02
              0.213545611902818E+02
             -0.209735504774227E+02
              0.188741627656877E+02
              0.978537007255296E+01
             -0.740770876212378E+02
             -0.549979960022552E+02
             -0.399936837066840E+02
              0.355431600417739E+02
              0.269007239757869E+01
             -0.628918729870662E+02
              0.587872622448185E+02
             -0.402606128563267E+02
              0.546913289046934E+02
             -0.290839412014042E+02
             -0.447781512421444E+02
              0.299192737192278E+02
             -0.660155213567599E+02
             -0.381199980196222E+02
              0.674966184035832E+02
              0.204711655871801E+02
             -0.361889759588673E+02
              0.491593779141209E+02
             -0.174717371855486E+02
             -0.324347227836131E+02
             -0.302906445570378E+02
             -0.502475001247468E+02
              0.250451122927189E+02
             -0.936315200697895E+02
             -0.843102846018955E+02
             -0.738476905642619E+01
             -0.307873270170123E+02
             -0.577826037654582E+02
              0.724488420082878E+02
              0.132021707545433E+03
             -0.361891869641630E+02
             -0.256800450210238E+01
             -0.639361862737901E+02
              0.652905356719236E+02
              0.171559372222149E+02
             -0.182646402082161E+02
             -0.411345126732413E+02
              0.149213376696398E+02
             -0.588284414670238E+02
             -0.198456054391822E+02
             -0.907821235028844E+02
              0.338357336573702E+02
              0.169358429991659E+02
              0.183320129231356E+01
             -0.710133032085946E+01
             -0.331246275025103E+02
             -0.763228759697512E+01
              0.126016716598951E+03
             -0.199587023582603E+02
             -0.439337430162112E+02
             -0.686463263705618E+02
              0.109817177856070E+02
             -0.343583089100989E+02
              0.595465377352728E+01
              0.262667301607292E+02
              0.102387861345451E+02
              0.279108990743946E+02
              0.120478143100990E+02
              0.631689515410382E+02
              0.317700193593451E+02
             -0.327891206158561E+02
              0.357520438312470E+02
              0.380770131805024E+02
              0.121304127192659E+02
              0.488613219988000E+02
             -0.225882996383726E+02
              0.768369237591534E+02
              0.173258271924131E+02
             -0.273372605755814E+02
             -0.726133822652399E+01
             -0.187096790249787E+02
              0.262540516294800E+02
             -0.235270152049050E+02
             -0.163436144093652E+00
             -0.854751220789763E+01
              0.812612224505609E+02
              0.502173396307286E+02
             -0.689406301797532E+02
             -0.479789631338579E+01
             -0.557326081957669E+02
             -0.159962479641201E+02
             -0.269182242904338E+02
              0.379756061207149E+01
              0.588234905319624E+00
             -0.258698328036118E+02
              0.820883683702283E+01
             -0.605659515640860E+01
             -0.128874205092616E+02
              0.862107244559096E+02
              0.182356102249300E+02
             -0.810043121813097E+02
             -0.459844247402025E+02
              0.948478047160814E+02
              0.278816176219894E+02
             -0.107121204703349E+02
              0.104961868103156E+03
             -0.195316022122348E+02
             -0.123370656822256E+02
             -0.542979769795534E+01
              0.108076806191415E+02
              0.273616188213733E+02
              0.781704596657036E+01
              0.306375481332246E+02
             -0.188316012538961E+02
             -0.305174881025229E+02
             -0.419408343274561E+02
             -0.478670095541719E+02
              0.465508502450859E+02
              0.127314698355345E+02
              0.389053399768529E+02
              0.134056019736942E+02
              0.858975652299173E+02
              0.157148486154075E+02
             -0.848941618403384E+02
             -0.335762395032514E+02
              0.133914596904491E+02
             -0.303851428447391E+02
              0.628916496835271E+02
             -0.892156563785625E+01
              0.149366860954548E+02
              0.499227138640425E+02
             -0.710125903831265E+02
              0.150285972820166E+03
              0.209494355484647E+02
              0.272173385453409E+02
              0.349017541316721E+02
              0.104050117613525E+02
             -0.155927254214754E+01
              0.359685521931205E+02
             -0.358586288092333E+02
              0.776418081133610E+02
              0.687649881543566E+02
             -0.407625236040882E+02
              0.150233853640784E+02
              0.672819719617136E+02
             -0.224679151369957E+02
              0.155022215726625E+02
              0.436459409346064E+02
              0.423718549711973E+02
             -0.787709199728734E+02
             -0.153061159429770E+02
             -0.357262391577497E+02
             -0.150509466481088E+01
             -0.769438280693087E+01
             -0.542250757068211E+01
             -0.181094815782528E+02
             -0.295108207589280E+02
              0.640075960260339E+01
              0.111971276642228E+02
              0.537685434673614E+02
             -0.391990169176582E+02
              0.376141421814871E+02
              0.440313180575423E+02
             -0.186955542401378E+02
              0.875236719594435E+02
             -0.700366650290039E+02
             -0.103567475491317E+03
             -0.662156844866653E+01
             -0.272734268004672E+01
              0.385010073427236E+01
              0.792481852313106E+02
             -0.107169191806861E+02
              0.418289596410708E+02
              0.445771314847752E+02
              0.386646947730729E+02
             -0.998939628591188E+01
              0.629721874096706E+02
             -0.134255797196768E+02
             -0.308810045179345E+02
             -0.480977429547721E+02
              0.591854789070408E+01
              0.370906987158737E+02
             -0.602874009261652E+01
              0.394233310962802E+02
             -0.174519231781147E+01
              0.657411144967114E+02
              0.187933780977441E+02
              0.100142416567452E+02
             -0.121826629730288E+02
              0.333348292942202E+02
              0.364005270322548E+02
              0.233240267637699E+02
             -0.518711154682961E+00
             -0.552609865074444E+02
              0.261856403834047E+02
              0.175933911809585E+02
              0.403859441161597E+02
              0.273358841855912E+02
              0.373773213441001E+02
             -0.606883227868894E+01
              0.252357242713902E+02
             -0.299551574183017E+02
             -0.198302585174383E+01
             -0.571192742376350E+02
             -0.309038081658538E+02
              0.380291099349721E+02
             -0.938948386207142E+02
              0.295378309005381E+02
              0.184617925538848E+02
              0.843342445064285E+02
             -0.301113292684834E+02
              0.330697439916072E+02
             -0.138086825485141E+02
             -0.465821701260966E+02
             -0.763993184539867E+02
             -0.531362247039465E+01
             -0.863382926633641E+02
              0.200072060577820E+02
             -0.248215569597024E+02
              0.306988821048024E+02
              0.237806030093475E+02
             -0.242275672115024E+02
             -0.266606632474118E+02
              0.392440412552867E+02
             -0.590606990780991E+02
             -0.117214453118293E+02
             -0.196813798027455E+02
              0.213803994536347E+02
             -0.889485958168001E+01
              0.363206700958614E+01
             -0.201343248239735E+02
              0.560772104106328E+02
             -0.441770240206097E+02
              0.791389960530262E+01
              0.587696614854154E+02
             -0.324780623950745E+02
              0.361629412923531E+01
             -0.880766158905351E+01
             -0.671890743649467E+02
             -0.483983383793030E+02
             -0.862286262049544E+01
              0.241854546559333E+02
              0.303600943267130E+02
              0.862112724040406E+01
             -0.418114887768820E+01
              0.152623962204405E+02
             -0.441457053781569E+02
              0.330732937056524E+01
             -0.533103041824119E+02
             -0.325752333005084E+02
              0.476568099002172E+02
             -0.296218643711083E+02
              0.625072877432570E+02
             -0.215690258963718E+02
              0.354930645426472E+02
              0.242718564582876E+02
             -0.646402472793462E+02
             -0.281376829927981E+02
              0.935704068305506E+01
             -0.373362645845509E+02
             -0.341077646916571E+02
             -0.833271078322975E+02
             -0.541409791422432E+02
             -0.512386300116195E+02
             -0.417203931173579E+02
             -0.981808899928097E+00
              0.100308051548197E+02
              0.107553147161914E+01
              0.154233875439998E+02
             -0.551507978655036E+02
              0.142487656923403E+02
              0.257809927652435E+02
             -0.669334639046548E+02
             -0.704237093704966E+02
             -0.432850444195153E+02
             -0.173160941306479E+02
              0.179137465526845E+02
              0.454056131936204E+01
             -0.427487086114796E+02
              0.367312637694293E+02
             -0.217033062763998E+02
              0.519354953803174E+02
             -0.890519173222351E+02
              0.600120147585979E+02
             -0.216643018325178E+01
             -0.370084597786012E+02
             -0.217271086632620E+02
              0.471514220770072E+01
              0.376394287936007E+02
             -0.759072007435272E+02
             -0.121186565755281E+02
             -0.217418568343447E+02
              0.512709202366804E+02
              0.867897661673348E+02
             -0.969035817480766E+02
              0.947474854426612E+02
              0.469171579501461E+02
             -0.728308009853980E+02
             -0.367751057433296E+02
              0.754951124752382E+02
              0.634150672386385E+02
             -0.182078948438348E+02
             -0.466011275526347E+01
              0.738693606303826E+01
              0.652033383829111E+02
             -0.510631084767585E+02
              0.158868647897752E+02
             -0.475376081420460E+01
              0.348682521268310E+02
             -0.749696437979717E+02
             -0.649422566738923E+01
             -0.352181560411170E+02
              0.462516469063918E+02
              0.470218182433090E+02
             -0.865176586032036E+02
             -0.488831499132296E+02
             -0.256992834056337E+02
[...]
              0.284282599631337E+02
              0.142283231586080E+03
              0.243574476146255E+02
              0.123224552046901E+02
             -0.466027444576789E+02
             -0.639823985324188E+02
             -0.189532239662276E+02
              0.330883096752316E+02
             -0.429842409593493E+01
              0.190977630656651E+02
              0.337422812912029E+02
             -0.588456180459354E+02
              0.223439301811784E+02
              0.583349463797593E+02
              0.554851945488626E+02
             -0.421930538210938E+01
             -0.134764138298112E+01
             -0.996932870296217E+01
             -0.484040800116759E+02
             -0.677409899021462E+02
              0.788288485405735E+02
             -0.526219400115133E+01
             -0.589824682389872E+02
              0.173125953908917E+01
             -0.206256245076594E+02
              0.941620378205805E+02
             -0.217347543572870E+02
             -0.354852044767406E+02
              0.336525450213425E+02
             -0.146369272698197E+02
              0.391234598024708E+02
             -0.236161417529115E+01
              0.101415048323933E+03
              0.491517759720373E+02
             -0.508572568753914E+01
             -0.323297850010548E+02
              0.233334479751606E+02
             -0.530452621484166E+02
             -0.128136248092521E+02
              0.587903054572646E+02
             -0.288664958536867E+02
             -0.439873511449667E+02
             -0.224018291466724E+02
              0.520386449184163E+02
              0.125177762202068E+02
             -0.851715277901434E+02
              0.305144976228201E+02
              0.152411577990312E+02
              0.581286449713491E+01
             -0.515201810387740E+02
             -0.374954079245941E+01
              0.324261121123710E+02
              0.514462753405395E+02
              0.634945340965635E+02
              0.230108407765891E+02
              0.771503756070842E+00
             -0.499963143195706E+02
             -0.511606417443322E+02
             -0.750206008631841E+02
             -0.620637564649394E+01
              0.310178664389550E+02
             -0.380494260138178E+01
              0.548592989009883E+02
             -0.319147863600123E+02
              0.166958904180301E+02
             -0.103393808097999E+02
             -0.290638220065291E+02
              0.587790097146380E+02
              0.794187820327960E+01
              0.606507315763038E+02
              0.511164675019745E+01
              0.265738794161344E+02
             -0.193274553243564E+02
              0.588254232844344E+02
             -0.112148802972665E+02
             -0.117492891739781E+00
             -0.792842638825458E+02
             -0.128634026370254E+02
              0.721529219372394E+02
              0.675360127965188E+02
              0.252766951358992E+02
             -0.130919511920888E+02
              0.346175866624563E+01
             -0.174255778380595E+02
             -0.211559467875358E+01
              0.910955066401208E+02
              0.126348352471223E+01
             -0.191400397057705E+02
             -0.111119194949380E+03
             -0.554180379756475E+02
             -0.376345868220278E+02
             -0.660758017391523E+02
             -0.557606780337511E+02
             -0.685065528566955E+02
             -0.448748477617378E+02
             -0.411879308380367E+02
             -0.453597192145205E+02
              0.485143753547846E+02
             -0.294758841005631E+02
             -0.998322844271107E+02
              0.420370164096421E+02
             -0.261140480354152E+02
             -0.793585478261834E+02
              0.947291588217741E+02
             -0.220671277472483E+02
              0.228551093403318E+02
              0.456451910979060E+02
             -0.130117664930145E+01
              0.255326129429002E+02
              0.470801672458984E+01
              0.412921939767553E+00
             -0.151183586394210E+02
             -0.718415478306951E+02
              0.133665370828082E+02
             -0.129812070173695E+03
              0.626700250465916E+02
             -0.442124645436602E+02
             -0.163472379976448E+02
             -0.158722159950704E+02
              0.720896682298487E+01
             -0.228220747334674E+02
              0.298007905999870E+02
             -0.522473366350424E+02
              0.368467844382792E+02
              0.372511936296447E+02
              0.168673133236917E+02
              0.101012179058219E+02
              0.198556401637258E+02
              0.625620008195301E+01
              0.311260143598793E+02
             -0.802338114396380E+01
             -0.594867722775693E+02
              0.761244812350168E+01
             -0.153659628116637E+02
             -0.195900021677477E+01
              0.508228399723324E+02
             -0.829606924211906E+02
             -0.147614284972622E+01
              0.580064488122844E+00
              0.998734308673130E+01
              0.319496835571183E+02
             -0.124027688142973E+02
              0.838510653806306E+02
              0.489070463621180E+02
             -0.183742257288860E+02
             -0.958422732830252E+01
              0.108366117133463E+01
              0.772170641000249E+02
             -0.587901099367502E+02
             -0.106117459925928E+03
              0.310281026282761E+02
             -0.163523793344239E+02
             -0.140162571740537E+02
              0.131121216194253E+02
              0.771131308145896E+02
              0.465725059936034E+02
             -0.153977867703890E+02
             -0.504827052833741E+02
             -0.552794919161893E+01
              0.307378692103086E+02
             -0.112185022902854E+02
             -0.758289999325661E+02
             -0.274119074483082E+01
             -0.893253854560321E+02
             -0.477316736010189E+02
              0.771411520956746E+02
             -0.485400135625576E+02
             -0.638980530058985E+02
             -0.516179603969352E+02
             -0.351041779605132E+02
              0.342278125091877E+02
              0.824530235132807E+02
             -0.360688184643305E+01
              0.277434650466213E+02
             -0.184508881130812E+02
             -0.696303538567906E+02
              0.466764394462859E+02
             -0.446707227522223E+02
              0.322582059854682E+02
              0.377271777891567E+02
             -0.660200433378805E+01
              0.391752462089174E+02
              0.439747904388705E+02
              0.101073056890028E+03
             -0.156359258156621E+02
             -0.457919566301954E+02
             -0.614926945733744E+02
             -0.124495337553909E+02
             -0.234273051658635E+02
              0.103341494180391E+03
             -0.450638773547141E+02
              0.105499640018269E+02
              0.972264223265506E+01
             -0.265342514128971E+02
             -0.801853491418743E+02
             -0.701952252642570E+01
              0.983258423858042E+02
              0.944996850937969E+01
              0.811331722324451E+01
             -0.529009878907271E+02
             -0.607263276607814E+02
             -0.568839052201314E+01
              0.501871585449120E+02
             -0.222809412779360E+02
              0.108319267890848E+03
             -0.437398808977135E+02
              0.146970898431861E+02
             -0.224501595406723E+02
             -0.720664589576704E+02
              0.169770993116151E+01
             -0.503499620276204E+02
             -0.763088780948021E+02
              0.620290090032813E+01
              0.236074157828878E+01
              0.515890468392624E+02
              0.188106903604353E+02
             -0.324827448279634E+02
              0.230787977175736E+02
             -0.814050584293221E+02
             -0.523322773713259E+02
              0.904865506971150E+02
              0.142477752071488E+02
             -0.188231919671490E+02
             -0.353305269400644E+02
             -0.271418776351084E+01
             -0.590351565404569E+01
              0.833478587825807E+02
              0.419240146704659E+02
             -0.166307221973821E+02
             -0.121881117271331E+02
             -0.428919711246212E+02
             -0.201154792462667E+02
             -0.672057590072217E+02
              0.461480286296461E+02
              0.549360257049790E+01
              0.145166076258713E+02
              0.156731504175238E+02
             -0.601718948849662E+00
             -0.169182943692271E+02
             -0.305426142715571E+01
             -0.100810107343844E+03
             -0.230394906180970E+02
             -0.768970374715229E+01
             -0.950653379275838E+01
              0.547941167613054E+02
              0.626139345501097E+02
              0.165372681491266E+02
             -0.973808127333700E+02
              0.649574608237190E+02
             -0.215683363477951E+02
             -0.378274915444085E+02
             -0.867182097036311E+02
             -0.387844829305872E+02
              0.566743888453151E+02
              0.245496725435229E+02
              0.518612826148808E+01
              0.293472927753564E+02
             -0.566879641996036E+02
             -0.423981331041462E+02
              0.517333554474636E+02
              0.388490251514669E+02
              0.520479366476949E+02
             -0.119099891068856E+01
              0.688883309574328E+01
              0.571281374224437E+02
              0.966090926402102E+02
             -0.300771344673006E+02
              0.324343894366552E+02
             -0.119641064726110E+02
             -0.413684901643390E+02
             -0.315620576142759E+02
             -0.301412418459959E+02
             -0.131829381204587E+02
             -0.524943298082329E+02
             -0.217853792543150E+02
             -0.141624496025333E+03
              0.370106308121398E+02
              0.207517503265806E+02
             -0.395458111408753E+01
             -0.381345938640624E+02
             -0.204823993773163E+02
             -0.528724812956301E+02
              0.151548505187637E+02
              0.822754148225157E+02
             -0.252801868920076E+02
             -0.163599295645476E+02
              0.238734626484875E+02
             -0.491197268139166E+02
              0.883384901457988E+02
              0.154916953435291E+02
              0.226623705143087E+02
              0.491864254378043E+02
              0.318134585159481E+01
              0.543969179739287E+02
              0.143664758116633E+02
             -0.106593851398442E+02
              0.734055648761154E+01
              0.744895977328042E+00
              0.729366136196905E+02
              0.101512994137415E+02
              0.121216570155913E+02
             -0.130434005987239E+02
              0.132838596848020E+02
             -0.914343166811022E+02
             -0.327082363824067E+02
             -0.458991267739161E+02
              0.486846381639175E+02
             -0.292199446357164E+02
             -0.660463381675048E+02
              0.540497199945816E+02
             -0.122427332697712E+02
              0.441423131578826E+02
             -0.901777103476063E+02
              0.232672832127103E+02
              0.858420160720362E+01
              0.584735324707867E+01
             -0.836337321537428E+01
             -0.906225292677311E+01
              0.481206340171344E+02
              0.200111831817060E+01
             -0.476802944554218E+02
             -0.176814553471674E+02
              0.277325227826484E+02
             -0.118326399304575E+03
             -0.932700503333951E+02
              0.396439217509311E+01
              0.118157416745115E+02
             -0.414872625439604E+02
             -0.389702402682747E+01
              0.112455495008794E+03
              0.307431744565703E+02
             -0.573358200156658E+02
              0.928023911732038E+01
             -0.967213053771042E+01
              0.106153317684071E+02
             -0.338897376791113E+02
              0.196194649243745E+02
              0.285462615097592E+02
             -0.301034979169162E+01
              0.108554345417333E+03
             -0.140502098007837E+02
             -0.317053500792822E+02
              0.143890397439559E+02
              0.468002570511991E+02
             -0.357003772250239E+02
             -0.317802707412552E+01
              0.968116395120094E+02
             -0.465191472335914E+01
              0.623522716753673E+02
              0.135980775452878E+02
             -0.903676236221973E+01
             -0.305924747051928E+02
              0.568235680986169E+02
             -0.516187046689518E+02
             -0.221626702351858E+01
             -0.170641900104299E+02
             -0.406592379383078E+02
              0.185440911819723E+02
              0.240174547002460E+02
              0.116192845890956E+02
              0.715698370770951E+00
             -0.385801060579508E+02
              0.215781403268932E+02
             -0.674444405974728E+01
             -0.247180515022373E+02
             -0.211262532124839E+02
              0.203787385441456E+02
             -0.599131555436816E+01
             -0.350459582700250E+02
             -0.107002230958758E+03
              0.103230645742016E+02
              0.249406960991987E+02
             -0.388996226513271E+02
             -0.211757499376406E+02
              0.809875150937678E+02
              0.655646122407015E+01
              0.312239009570008E+02
              0.393925064864760E+01
              0.323204394509049E+02
              0.648731897788133E+01
             -0.374282580445803E+02
             -0.237227772146755E+01
              0.878009068267039E+01
              0.274942331099322E+02
              0.784399621201574E+02
              0.509043221786678E+02
              0.197498979433476E+00
              0.169806601520492E+02
              0.615247336359195E+02
              0.236814388191982E+02
             -0.755133340013041E+02
             -0.274678787531491E+02
              0.151459933011693E+02
              0.564888555640755E+01
              0.255845076310328E+02
             -0.549499823677223E+02
              0.900979624615621E+01
              0.387458564030239E+02
              0.499632829596892E+02
             -0.436337095357362E+02
             -0.689581487770624E+01
             -0.209202932821080E+01
             -0.134363604562210E+02
             -0.366373462071489E+02
             -0.215746440955436E+02
             -0.206256382621717E+01
              0.796650898952691E+01
              0.422793355975873E+02
             -0.309247667246523E+02
              0.828844972181867E+02
              0.328626271176959E+02
              0.220754885035973E+02
              0.334324359330973E+02
              0.324030651263546E+02
              0.347448284098524E+02
              0.538991969767860E+02
             -0.435448727853726E+02
              0.621720557012839E+02
             -0.112658939458026E+03
              0.308441858175597E+02
             -0.106890315456201E+03
              0.857395373419353E+02
              0.693261787854640E+02
             -0.110193862891996E+02
             -0.494860665567934E+02
             -0.431017358894596E+02
             -0.625332932999183E+02
             -0.630891315487712E+02
              0.553767643927000E+02
              0.406911052102015E+02
              0.237570079959782E+02
              0.374669289461510E+02
              0.404657066099614E+02
             -0.383451826522908E+02
             -0.198436370948277E+02
              0.588406334003650E+02
             -0.116537258994024E+02
              0.553572792583526E+02
              0.701977129292528E+02
             -0.556378200878511E+01
             -0.708794151508326E+02
             -0.867366040614911E+00
             -0.247556109414582E+01
             -0.886093480037187E+01
             -0.180062038369908E+01
             -0.655174604837023E+02
             -0.211007288290183E+02
              0.543154527994434E+01
              0.904392977111968E+01
              0.470609052385341E+02
             -0.399186292536941E+02
              0.659219780465256E+02
             -0.426626222782437E+02
              0.211358122283937E+02
              0.351739064678231E+02
 
 BEEF-vdW xc energy contributions
           1 :   -785.350356490324     
           2 :    721.283753792866     
           3 :   -610.446214950403     
           4 :    480.091173308850     
           5 :   -357.813237592827     
           6 :    263.420521921412     
           7 :   -204.505279782186     
           8 :    176.490464317477     
           9 :   -166.679614733414     
          10 :    160.410992814300     
          11 :   -146.828772000747     
          12 :    122.109213040225     
          13 :   -89.3084451701493     
          14 :    55.4567254156269     
          15 :   -27.5778996367228     
          16 :    9.43158904992310     
          17 :  -0.233222913375016     
          18 :   -4.39826427684989     
          19 :    9.96368002692930     
          20 :   -20.3791978470687     
          21 :    36.2835272151481     
          22 :   -55.0289046304212     
          23 :    72.1938498348771     
          24 :   -83.7900732461386     
          25 :    88.0794115159902     
          26 :   -86.2040078312868     
          27 :    81.4313495569384     
          28 :   -77.4711448279745     
          29 :    76.7160436677862     
          30 :   -79.2375902373784     
          31 :   -86.1188194222968     
          32 :   -65.9486742524732     

     Writing output data file ./pwscf.save/
 
     init_run     :    363.60s CPU    368.35s WALL (       1 calls)
     electrons    :  14442.73s CPU  14583.90s WALL (       1 calls)
     forces       :    106.17s CPU    107.52s WALL (       1 calls)

     Called by init_run:
     wfcinit      :    315.60s CPU    319.23s WALL (       1 calls)
     potinit      :     44.45s CPU     44.80s WALL (       1 calls)
     hinit0       :      1.49s CPU      1.53s WALL (       1 calls)

     Called by electrons:
     c_bands      :  11910.40s CPU  12018.17s WALL (      21 calls)
     sum_band     :   1765.46s CPU   1780.60s WALL (      21 calls)
     v_of_rho     :    112.85s CPU    117.47s WALL (      21 calls)
     newd         :     35.19s CPU     48.93s WALL (      21 calls)
     PAW_pot      :    140.62s CPU    140.64s WALL (      21 calls)
     mix_rho      :    523.44s CPU    524.27s WALL (      21 calls)
     vdW_kernel   :     33.46s CPU     33.47s WALL (       1 calls)

     Called by c_bands:
     init_us_2    :     88.67s CPU     88.93s WALL (     572 calls)
     cegterg      :  11040.86s CPU  11147.50s WALL (     273 calls)

     Called by *egterg:
     cdiaghg      :     93.58s CPU     93.61s WALL (    1353 calls)
     h_psi        :   7250.22s CPU   7287.53s WALL (    1379 calls)
     s_psi        :   1138.99s CPU   1139.06s WALL (    1379 calls)
     g_psi        :     17.35s CPU     17.37s WALL (    1093 calls)

     Called by h_psi:
     h_psi:calbec :   1078.06s CPU   1078.30s WALL (    1379 calls)
     vloc_psi     :   5005.31s CPU   5007.02s WALL (    1379 calls)
     add_vuspsi   :   1138.34s CPU   1138.49s WALL (    1379 calls)

     General routines
     calbec       :   1598.84s CPU   1599.29s WALL (    1704 calls)
     fft          :     53.18s CPU     53.20s WALL (    3281 calls)
     ffts         :    169.29s CPU    169.32s WALL (   11010 calls)
     fftw         :   5109.27s CPU   5110.46s WALL (  347515 calls)
 
     Parallel routines
 
     PWSCF        :      4h10m CPU      4h13m WALL

 
   This run was terminated on:   3: 2:29   4Jan2023            

=------------------------------------------------------------------------------=
   JOB DONE.
=------------------------------------------------------------------------------=
