
     Program PWSCF v.6.7MaX starts on 26Sep2022 at 22: 6:16 

     This program is part of the open-source Quantum ESPRESSO suite
     for quantum simulation of materials; please cite
         "P. Giannozzi et al., J. Phys.:Condens. Matter 21 395502 (2009);
         "P. Giannozzi et al., J. Phys.:Condens. Matter 29 465901 (2017);
          URL http://www.quantum-espresso.org", 
     in publications or presentations arising from this work. More details at
     http://www.quantum-espresso.org/quote

     Parallel version (MPI), running on     1 processors

     MPI processes distributed on     1 nodes
     Reading input from oco2h2-ensemble.in
Warning: card &CELL ignored
Warning: card / ignored

     Current dimensions of program PWSCF are:
     Max number of different atomic species (ntypx) = 10
     Max number of k-points (npk) =  40000
     Max angular momentum in pseudopotentials (lmaxx) =  3
     file Pt.pbe-n-kjpaw_psl.1.0.0.UPF: wavefunction(s)  6S 5D renormalized
     file O.pbe-nl-kjpaw_psl.1.0.0.UPF: wavefunction(s)  2S 2P renormalized
     file C.pbe-n-kjpaw_psl.1.0.0.UPF: wavefunction(s)  2S 2P renormalized
     file H.pbe-kjpaw_psl.1.0.0.UPF: wavefunction(s)  1S renormalized

     **************************************************************************
     Initializing libbeef V0.1.2 with the BEEF-vdW functional.
     Citation: Wellendorff et al., PRB 85, 235149 (2012).
     **************************************************************************


     IMPORTANT: XC functional enforced from input :
     Exchange-correlation= BEEF-VDW
                           (   1   4  43  14   2   0   0)
     Any further DFT definition will be discarded
     Please, verify this is what you really want


     Subspace diagonalization in iterative solution of the eigenvalue problem:
     a serial algorithm will be used

 
     G-vector sticks info
     --------------------
     sticks:   dense  smooth     PW     G-vecs:    dense   smooth      PW
     Sum        4267    4267   1159               712841   712841  100445
 


     bravais-lattice index     =            0
     lattice parameter (alat)  =      16.0349  a.u.
     unit-cell volume          =   11349.2012 (a.u.)^3
     number of atoms/cell      =           42
     number of atomic types    =            4
     number of electrons       =       384.00
     number of Kohn-Sham states=          230
     kinetic-energy cutoff     =      60.0000  Ry
     charge density cutoff     =     240.0000  Ry
     scf convergence threshold =      1.0E-06
     mixing beta               =       0.7000
     number of iterations used =            8  local-TF  mixing
     Exchange-correlation= BEEF-VDW
                           (   1   4  43  14   2   0   0)

     celldm(1)=  16.034858  celldm(2)=   0.000000  celldm(3)=   0.000000
     celldm(4)=   0.000000  celldm(5)=   0.000000  celldm(6)=   0.000000

     crystal axes: (cart. coord. in units of alat)
               a(1) = (   1.000000   0.000000   0.000000 )  
               a(2) = (   0.500000   0.866025   0.000000 )  
               a(3) = (   0.000000   0.000000   3.178625 )  

     reciprocal axes: (cart. coord. in units 2 pi/alat)
               b(1) = (  1.000000 -0.577350  0.000000 )  
               b(2) = (  0.000000  1.154701  0.000000 )  
               b(3) = (  0.000000  0.000000  0.314601 )  


     PseudoPot. # 1 for Pt read from file:
     /users/bkreitz1/quantum-espresso/potentials/Pt.pbe-n-kjpaw_psl.1.0.0.UPF
     MD5 check sum: 04dc8a03c51ece93fc7b5889c2958091
     Pseudo is Projector augmented-wave + core cor, Zval = 10.0
     Generated using 'atomic' code by A. Dal Corso  v.6.7MaX
     Shape of augmentation charge: PSQ
     Using radial grid of 1277 points,  6 beta functions with: 
                l(1) =   0
                l(2) =   0
                l(3) =   1
                l(4) =   1
                l(5) =   2
                l(6) =   2
     Q(r) pseudized with 0 coefficients 


     PseudoPot. # 2 for O  read from file:
     /users/bkreitz1/quantum-espresso/potentials/O.pbe-nl-kjpaw_psl.1.0.0.UPF
     MD5 check sum: eef08af8b58d9ec80f8fdb78829eb7cf
     Pseudo is Projector augmented-wave + core cor, Zval =  6.0
     Generated using 'atomic' code by A. Dal Corso  v.6.7MaX
     Shape of augmentation charge: PSQ
     Using radial grid of 1095 points,  4 beta functions with: 
                l(1) =   0
                l(2) =   0
                l(3) =   1
                l(4) =   1
     Q(r) pseudized with 0 coefficients 


     PseudoPot. # 3 for C  read from file:
     /users/bkreitz1/quantum-espresso/potentials/C.pbe-n-kjpaw_psl.1.0.0.UPF
     MD5 check sum: a169b0ebad56f5ec0d79c4633f80bf22
     Pseudo is Projector augmented-wave + core cor, Zval =  4.0
     Generated using 'atomic' code by A. Dal Corso  v.6.7MaX
     Shape of augmentation charge: PSQ
     Using radial grid of 1073 points,  4 beta functions with: 
                l(1) =   0
                l(2) =   0
                l(3) =   1
                l(4) =   1
     Q(r) pseudized with 0 coefficients 


     PseudoPot. # 4 for H  read from file:
     /users/bkreitz1/quantum-espresso/potentials/H.pbe-kjpaw_psl.1.0.0.UPF
     MD5 check sum: ae98473e6dc62675f0d0baffdab24f65
     Pseudo is Projector augmented-wave, Zval =  1.0
     Generated using 'atomic' code by A. Dal Corso  v.6.7MaX
     Shape of augmentation charge: PSQ
     Using radial grid of  929 points,  2 beta functions with: 
                l(1) =   0
                l(2) =   0
     Q(r) pseudized with 0 coefficients 


     atomic species   valence    mass     pseudopotential
        Pt            10.00   195.08400     Pt( 1.00)
        O              6.00    15.99900     O ( 1.00)
        C              4.00    12.01100     C ( 1.00)
        H              1.00     1.00800     H ( 1.00)

     No symmetry found



   Cartesian axes

     site n.     atom                  positions (alat units)
         1           Pt  tau(   1) = (   0.0000000   0.0000000   1.0017346  )
         2           Pt  tau(   2) = (   0.3333333   0.0000000   1.0017346  )
         3           Pt  tau(   3) = (   0.6666667   0.0000000   1.0017346  )
         4           Pt  tau(   4) = (   0.1666667   0.2886751   1.0017346  )
         5           Pt  tau(   5) = (   0.5000000   0.2886751   1.0017346  )
         6           Pt  tau(   6) = (   0.8333333   0.2886751   1.0017346  )
         7           Pt  tau(   7) = (   0.3333333   0.5773503   1.0017346  )
         8           Pt  tau(   8) = (   0.6666667   0.5773503   1.0017346  )
         9           Pt  tau(   9) = (   1.0000000   0.5773503   1.0017346  )
        10           Pt  tau(  10) = (   0.1666667   0.0962250   1.2739001  )
        11           Pt  tau(  11) = (   0.5000000   0.0962250   1.2739001  )
        12           Pt  tau(  12) = (   0.8333333   0.0962250   1.2739001  )
        13           Pt  tau(  13) = (   0.3333333   0.3849002   1.2739001  )
        14           Pt  tau(  14) = (   0.6666667   0.3849002   1.2739001  )
        15           Pt  tau(  15) = (   1.0000000   0.3849002   1.2739001  )
        16           Pt  tau(  16) = (   0.5000000   0.6735753   1.2739001  )
        17           Pt  tau(  17) = (   0.8333333   0.6735753   1.2739001  )
        18           Pt  tau(  18) = (   1.1666667   0.6735753   1.2739001  )
        19           Pt  tau(  19) = (  -0.0002235   0.1923083   1.5423163  )
        20           Pt  tau(  20) = (   0.3334801   0.1923880   1.5422128  )
        21           Pt  tau(  21) = (   0.6667629   0.1924031   1.5426769  )
        22           Pt  tau(  22) = (   0.1667174   0.4814249   1.5422012  )
        23           Pt  tau(  23) = (   0.4999579   0.4811608   1.5424991  )
        24           Pt  tau(  24) = (   0.8333272   0.4810856   1.5427268  )
        25           Pt  tau(  25) = (   0.3333135   0.7697858   1.5425908  )
        26           Pt  tau(  26) = (   0.6666033   0.7697774   1.5424123  )
        27           Pt  tau(  27) = (   1.0001398   0.7697415   1.5425868  )
        28           Pt  tau(  28) = (  -0.0001346  -0.0000284   1.8164882  )
        29           Pt  tau(  29) = (   0.3335246  -0.0004114   1.8155766  )
        30           Pt  tau(  30) = (   0.6666521   0.0000062   1.8168356  )
        31           Pt  tau(  31) = (   0.1660046   0.2890232   1.8145838  )
        32           Pt  tau(  32) = (   0.5003492   0.2886843   1.8159302  )
        33           Pt  tau(  33) = (   0.8334857   0.2886270   1.8174395  )
        34           Pt  tau(  34) = (   0.3333086   0.5773203   1.8166287  )
        35           Pt  tau(  35) = (   0.6667507   0.5773176   1.8165586  )
        36           Pt  tau(  36) = (   1.0000813   0.5772127   1.8171231  )
        37           O   tau(  37) = (   0.1667315   0.1008379   2.2206703  )
        38           C   tau(  38) = (   0.3024949   0.1866182   2.2316050  )
        39           O   tau(  39) = (   0.2889483   0.3466082   2.2205835  )
        40           H   tau(  40) = (   0.1816628   0.3825541   2.2051369  )
        41           H   tau(  41) = (   0.0755311   0.1628867   2.1908778  )
        42           O   tau(  42) = (   0.4284238   0.1241837   2.2511390  )

     number of k points=    13  Marzari-Vanderbilt smearing, width (Ry)=  0.0200
                       cart. coord. in units 2pi/alat
        k(    1) = (   0.0000000   0.0000000   0.0000000), wk =   0.0800000
        k(    2) = (   0.0000000   0.2309401   0.0000000), wk =   0.1600000
        k(    3) = (   0.0000000   0.4618802   0.0000000), wk =   0.1600000
        k(    4) = (   0.2000000  -0.1154701   0.0000000), wk =   0.1600000
        k(    5) = (   0.2000000   0.1154701   0.0000000), wk =   0.1600000
        k(    6) = (   0.2000000   0.3464102   0.0000000), wk =   0.1600000
        k(    7) = (   0.2000000  -0.5773503   0.0000000), wk =   0.1600000
        k(    8) = (   0.2000000  -0.3464102   0.0000000), wk =   0.1600000
        k(    9) = (   0.4000000  -0.2309401   0.0000000), wk =   0.1600000
        k(   10) = (   0.4000000  -0.0000000   0.0000000), wk =   0.1600000
        k(   11) = (   0.4000000   0.2309401   0.0000000), wk =   0.1600000
        k(   12) = (   0.4000000  -0.6928203   0.0000000), wk =   0.1600000
        k(   13) = (   0.4000000  -0.4618802   0.0000000), wk =   0.1600000

     Dense  grid:   712841 G-vectors     FFT dimensions: (  80,  80, 256)

     Estimated max dynamical RAM per process >       8.76 GB

     Check: negative core charge=   -0.000002

     Initial potential from superposition of free atoms

     starting charge  383.99383, renormalised to  384.00000

     negative rho (up, down):  1.167E-02 0.000E+00


     %%%%%%%%%%%%%%%%%%%%%%%%%%%%%%%%%%%%%%%%%%%%%%%%%%%%%%%%%%%%%%%%%%%%%%%%
     %                                                                      %
     % You are using vdW-DF, which was implemented by the Thonhauser group. %
     % Please cite the following two papers that made this development      %
     % possible and the two reviews that describe the various versions:     %
     %                                                                      %
     %   T. Thonhauser et al., PRL 115, 136402 (2015).                      %
     %   T. Thonhauser et al., PRB 76, 125112 (2007).                       %
     %   K. Berland et al., Rep. Prog. Phys. 78, 066501 (2015).             %
     %   D.C. Langreth et al., J. Phys.: Condens. Matter 21, 084203 (2009). %
     %                                                                      %
     %                                                                      %
     % If you are calculating the stress with vdW-DF, please also cite:     %
     %                                                                      %
     %   R. Sabatini et al., J. Phys.: Condens. Matter 24, 424209 (2012).   %
     %                                                                      %
     %%%%%%%%%%%%%%%%%%%%%%%%%%%%%%%%%%%%%%%%%%%%%%%%%%%%%%%%%%%%%%%%%%%%%%%%


     Starting wfcs are  342 randomized atomic wfcs
     Checking if some PAW data can be deallocated... 

     total cpu time spent up to now is      345.4 secs

     Self-consistent Calculation

     iteration #  1     ecut=    60.00 Ry     beta= 0.70
     Davidson diagonalization with overlap
     ethr =  1.00E-02,  avg # of iterations =  2.7

     Threshold (ethr) on eigenvalues was too large:
     Diagonalizing with lowered threshold

     Davidson diagonalization with overlap
     ethr =  6.33E-04,  avg # of iterations =  3.3

     negative rho (up, down):  1.174E-02 0.000E+00

     total cpu time spent up to now is     1722.0 secs

     total energy              =  -27902.85381409 Ry
     estimated scf accuracy    <       2.59215956 Ry

     iteration #  2     ecut=    60.00 Ry     beta= 0.70
     Davidson diagonalization with overlap
     ethr =  6.75E-04,  avg # of iterations =  4.0

     negative rho (up, down):  1.062E-02 0.000E+00

     total cpu time spent up to now is     2363.5 secs

     total energy              =  -27903.09286381 Ry
     estimated scf accuracy    <       0.92018339 Ry

     iteration #  3     ecut=    60.00 Ry     beta= 0.70
     Davidson diagonalization with overlap
     ethr =  2.40E-04,  avg # of iterations =  3.4

     negative rho (up, down):  8.266E-03 0.000E+00

     total cpu time spent up to now is     3012.3 secs

     total energy              =  -27903.15148860 Ry
     estimated scf accuracy    <       0.24676566 Ry

     iteration #  4     ecut=    60.00 Ry     beta= 0.70
     Davidson diagonalization with overlap
     ethr =  6.43E-05,  avg # of iterations = 10.9

     negative rho (up, down):  6.284E-03 0.000E+00

     total cpu time spent up to now is     3885.7 secs

     total energy              =  -27903.19080169 Ry
     estimated scf accuracy    <       0.06771773 Ry

     iteration #  5     ecut=    60.00 Ry     beta= 0.70
     Davidson diagonalization with overlap
     ethr =  1.76E-05,  avg # of iterations =  6.7

     negative rho (up, down):  6.337E-03 0.000E+00

     total cpu time spent up to now is     4659.1 secs

     total energy              =  -27903.19843517 Ry
     estimated scf accuracy    <       0.02098646 Ry

     iteration #  6     ecut=    60.00 Ry     beta= 0.70
     Davidson diagonalization with overlap
     ethr =  5.47E-06,  avg # of iterations =  8.5

     negative rho (up, down):  7.334E-03 0.000E+00

     total cpu time spent up to now is     5404.5 secs

     total energy              =  -27903.19962172 Ry
     estimated scf accuracy    <       0.03444893 Ry

     iteration #  7     ecut=    60.00 Ry     beta= 0.70
     Davidson diagonalization with overlap
     ethr =  5.47E-06,  avg # of iterations =  4.0

     negative rho (up, down):  1.217E-02 0.000E+00

     total cpu time spent up to now is     6034.9 secs

     total energy              =  -27903.19841664 Ry
     estimated scf accuracy    <       0.01615616 Ry

     iteration #  8     ecut=    60.00 Ry     beta= 0.70
     Davidson diagonalization with overlap
     c_bands:  4 eigenvalues not converged
     c_bands:  2 eigenvalues not converged
     c_bands:  3 eigenvalues not converged
     ethr =  4.21E-06,  avg # of iterations = 12.1

     negative rho (up, down):  2.480E-02 0.000E+00

     total cpu time spent up to now is     6754.3 secs

     total energy              =  -27903.19785268 Ry
     estimated scf accuracy    <       0.02669789 Ry

     iteration #  9     ecut=    60.00 Ry     beta= 0.70
     Davidson diagonalization with overlap
     c_bands:  3 eigenvalues not converged
     c_bands:  1 eigenvalues not converged
     c_bands:  1 eigenvalues not converged
     c_bands:  1 eigenvalues not converged
     ethr =  4.21E-06,  avg # of iterations = 12.2

     negative rho (up, down):  2.997E-02 0.000E+00

     total cpu time spent up to now is     7462.4 secs

     total energy              =  -27903.19764634 Ry
     estimated scf accuracy    <       0.00671975 Ry

     iteration # 10     ecut=    60.00 Ry     beta= 0.70
     Davidson diagonalization with overlap
     ethr =  1.75E-06,  avg # of iterations = 10.0

     negative rho (up, down):  3.346E-02 0.000E+00

     total cpu time spent up to now is     8148.8 secs

     total energy              =  -27903.19749182 Ry
     estimated scf accuracy    <       0.00340171 Ry

     iteration # 11     ecut=    60.00 Ry     beta= 0.70
     Davidson diagonalization with overlap
     c_bands:  1 eigenvalues not converged
     ethr =  8.86E-07,  avg # of iterations =  7.5

     negative rho (up, down):  3.074E-02 0.000E+00

     total cpu time spent up to now is     8815.5 secs

     total energy              =  -27903.19736698 Ry
     estimated scf accuracy    <       0.00070327 Ry

     iteration # 12     ecut=    60.00 Ry     beta= 0.70
     Davidson diagonalization with overlap
     ethr =  1.83E-07,  avg # of iterations =  7.7

     negative rho (up, down):  2.878E-02 0.000E+00

     total cpu time spent up to now is     9511.4 secs

     total energy              =  -27903.19731004 Ry
     estimated scf accuracy    <       0.00042198 Ry

     iteration # 13     ecut=    60.00 Ry     beta= 0.70
     Davidson diagonalization with overlap
     ethr =  1.10E-07,  avg # of iterations =  3.4

     negative rho (up, down):  2.692E-02 0.000E+00

     total cpu time spent up to now is    10122.6 secs

     total energy              =  -27903.19726387 Ry
     estimated scf accuracy    <       0.00027337 Ry

     iteration # 14     ecut=    60.00 Ry     beta= 0.70
     Davidson diagonalization with overlap
     ethr =  7.12E-08,  avg # of iterations =  3.2

     negative rho (up, down):  2.196E-02 0.000E+00

     total cpu time spent up to now is    10725.6 secs

     total energy              =  -27903.19716721 Ry
     estimated scf accuracy    <       0.00020732 Ry

     iteration # 15     ecut=    60.00 Ry     beta= 0.70
     Davidson diagonalization with overlap
     c_bands:  1 eigenvalues not converged
     ethr =  5.40E-08,  avg # of iterations =  6.6

     negative rho (up, down):  1.938E-02 0.000E+00

     total cpu time spent up to now is    11349.9 secs

     total energy              =  -27903.19713613 Ry
     estimated scf accuracy    <       0.00017726 Ry

     iteration # 16     ecut=    60.00 Ry     beta= 0.70
     Davidson diagonalization with overlap
     c_bands:  1 eigenvalues not converged
     ethr =  4.62E-08,  avg # of iterations =  2.5

     negative rho (up, down):  1.623E-02 0.000E+00

     total cpu time spent up to now is    11908.2 secs

     total energy              =  -27903.19710097 Ry
     estimated scf accuracy    <       0.00009995 Ry

     iteration # 17     ecut=    60.00 Ry     beta= 0.70
     Davidson diagonalization with overlap
     c_bands:  1 eigenvalues not converged
     ethr =  2.60E-08,  avg # of iterations =  3.8

     negative rho (up, down):  1.393E-02 0.000E+00

     total cpu time spent up to now is    12511.7 secs

     total energy              =  -27903.19708982 Ry
     estimated scf accuracy    <       0.00007261 Ry

     iteration # 18     ecut=    60.00 Ry     beta= 0.70
     Davidson diagonalization with overlap
     ethr =  1.89E-08,  avg # of iterations =  3.4

     negative rho (up, down):  1.276E-02 0.000E+00

     total cpu time spent up to now is    13117.9 secs

     total energy              =  -27903.19709272 Ry
     estimated scf accuracy    <       0.00001850 Ry

     iteration # 19     ecut=    60.00 Ry     beta= 0.70
     Davidson diagonalization with overlap
     ethr =  4.82E-09,  avg # of iterations =  3.9

     negative rho (up, down):  1.302E-02 0.000E+00

     total cpu time spent up to now is    13774.2 secs

     total energy              =  -27903.19709472 Ry
     estimated scf accuracy    <       0.00000473 Ry

     iteration # 20     ecut=    60.00 Ry     beta= 0.70
     Davidson diagonalization with overlap
     ethr =  1.23E-09,  avg # of iterations =  4.3

     negative rho (up, down):  1.288E-02 0.000E+00

     total cpu time spent up to now is    14586.4 secs

     total energy              =  -27903.19709661 Ry
     estimated scf accuracy    <       0.00000279 Ry

     iteration # 21     ecut=    60.00 Ry     beta= 0.70
     Davidson diagonalization with overlap
     ethr =  7.26E-10,  avg # of iterations =  2.0

     negative rho (up, down):  1.282E-02 0.000E+00

     total cpu time spent up to now is    15162.1 secs

     End of self-consistent calculation

          k = 0.0000 0.0000 0.0000 ( 89081 PWs)   bands (ev):

   -21.7468 -19.4689 -18.8136  -9.1968  -8.3522  -7.1376  -5.8265  -4.7755
    -4.7242  -4.7174  -4.7173  -4.7147  -4.7133  -4.7125  -4.7104  -4.6745
    -4.5613  -4.1577  -4.1573  -4.1570  -4.1556  -4.1548  -4.1538  -3.6854
    -3.6836  -3.6814  -3.6805  -3.6800  -3.6783  -3.5569  -3.4670  -3.4661
    -3.4652  -3.4639  -3.4625  -3.4621  -3.2405  -3.2396  -3.2352  -3.2333
    -3.2197  -3.2184  -3.2179  -3.2161  -3.2141  -3.2135  -3.2040  -3.2025
    -2.6212  -2.6203  -2.5910  -2.5890  -2.5351  -2.5333  -2.5317  -2.5310
    -2.5284  -2.5282  -2.3950  -2.3938  -2.2944  -2.2906  -2.0700  -1.7955
    -1.7853  -1.7841  -1.7809  -1.7801  -1.7787  -1.7171  -1.6302  -1.6302
    -1.6020  -1.5972  -1.5869  -1.5859  -1.5836  -1.5720  -1.5672  -1.5647
    -1.5643  -1.5619  -1.5599  -1.5287  -1.5284  -1.5009  -1.3739  -1.3690
    -1.3665  -1.3656  -1.3643  -1.3560  -1.2229  -1.2197  -1.2181  -1.2154
    -1.2144  -1.2121  -1.1164  -1.1163  -1.0181  -1.0180  -0.9534  -0.9533
    -0.9523  -0.9350  -0.9076  -0.9052  -0.8984  -0.8956  -0.7879  -0.7458
    -0.7413  -0.7375  -0.7355  -0.7304  -0.7255  -0.5882  -0.2529  -0.2513
    -0.2483  -0.2465  -0.2456  -0.2442  -0.1792  -0.1737  -0.1694  -0.1681
    -0.1662  -0.1625  -0.1008  -0.0989   0.0560   0.0641   0.0705   0.0763
     0.0801   0.0855   0.1106   0.2155   0.2176   0.2182   0.2185   0.2273
     0.2274   0.4810   0.4812   0.4821   0.4839   0.4854   0.4864   0.5632
     0.5634   0.7414   0.7451   0.7471   0.7495   0.7503   0.7515   0.9130
     0.9154   0.9177   0.9184   0.9193   0.9197   0.9553   0.9615   0.9653
     0.9693   0.9733   0.9760   1.0933   1.0943   1.1125   1.1134   1.1141
     1.1153   1.1164   1.1168   1.2143   1.2207   1.2214   1.2219   1.2225
     1.2259   1.2281   1.2290   1.3193   1.3225   1.3241   1.3268   1.3279
     1.3281   1.4272   1.4285   1.4342   1.4350   1.4372   1.4375   1.5190
     1.6535   1.6537   1.7594   1.7613   1.7619   1.7631   1.7646   1.7650
     2.5789   2.6437   2.6503   2.6573   2.6686   2.6812   2.6861   4.9277
     4.9660   4.9883   5.0053   5.0180   5.0272   5.7782   6.5159   6.5177
     6.5470   6.5719   6.5749   6.5754   6.6726   6.7760

          k = 0.0000 0.2309 0.0000 ( 89052 PWs)   bands (ev):

   -21.7468 -19.4690 -18.8136  -9.1967  -8.3522  -6.9906  -5.6818  -5.2312
    -4.8324  -4.8313  -4.7188  -4.6196  -4.5818  -4.5292  -4.5230  -4.4808
    -4.4796  -4.2693  -4.2521  -4.0959  -4.0949  -4.0751  -4.0732  -3.7986
    -3.6640  -3.6632  -3.6337  -3.6237  -3.5709  -3.5637  -3.5508  -3.4963
    -3.4954  -3.4927  -3.4922  -3.4053  -3.3891  -3.3870  -3.2658  -3.2636
    -3.2629  -3.2032  -3.2012  -3.0483  -3.0468  -3.0117  -3.0091  -2.9831
    -2.7462  -2.7452  -2.7024  -2.6588  -2.6577  -2.6136  -2.6119  -2.4373
    -2.4346  -2.3683  -2.3678  -2.3236  -2.2908  -2.2881  -2.0877  -2.0700
    -1.9897  -1.9889  -1.9056  -1.9021  -1.8644  -1.8242  -1.7882  -1.7841
    -1.7668  -1.7460  -1.7432  -1.6987  -1.6277  -1.6122  -1.5945  -1.5926
    -1.5251  -1.5215  -1.5011  -1.4946  -1.4489  -1.4333  -1.4220  -1.3643
    -1.3344  -1.3115  -1.3106  -1.3087  -1.2189  -1.2168  -1.2094  -1.2062
    -1.1932  -1.1190  -1.1152  -1.0999  -1.0938  -1.0283  -1.0235  -1.0216
    -0.9722  -0.9692  -0.9325  -0.9308  -0.9170  -0.8268  -0.7787  -0.7467
    -0.7408  -0.7374  -0.7308  -0.7063  -0.7025  -0.6958  -0.6660  -0.6420
    -0.6237  -0.6133  -0.5539  -0.4121  -0.3366  -0.2773  -0.2283  -0.2263
    -0.2166  -0.2141  -0.1913  -0.1894  -0.0307  -0.0171  -0.0130   0.0643
     0.1024   0.1309   0.1319   0.1387   0.1494   0.2507   0.2523   0.2642
     0.2682   0.3471   0.3576   0.3588   0.3884   0.3897   0.5779   0.5970
     0.6130   0.6139   0.6168   0.6409   0.6506   0.7388   0.7402   0.7637
     0.7913   0.8071   0.8570   0.8573   0.8596   0.8600   0.9740   0.9766
     1.0034   1.0048   1.0985   1.1501   1.1531   1.1591   1.1617   1.1827
     1.2237   1.2245   1.2898   1.2914   1.3499   1.3513   1.3568   1.4046
     1.4064   1.4073   1.4117   1.4130   1.4187   1.4871   1.4875   1.6479
     1.6490   1.6608   1.6756   1.6857   1.6864   1.7247   1.7643   1.7652
     1.7815   1.8787   1.8813   1.9049   2.0627   2.0662   2.0689   2.1014
     2.1441   2.5274   2.5315   3.2257   3.2479   3.2875   3.4022   4.2571
     4.7103   4.7273   5.3848   5.3856   5.5198   5.5563   5.7889   5.8660
     6.3602   6.3651   6.5942   6.6653   6.7538   6.7635

          k = 0.0000 0.4619 0.0000 ( 89082 PWs)   bands (ev):

   -21.7468 -19.4690 -18.8136  -9.1965  -8.3522  -6.5675  -5.9323  -5.2763
    -4.8664  -4.8653  -4.7431  -4.6847  -4.5765  -4.4983  -4.3436  -4.2098
    -4.1676  -4.1399  -4.1389  -3.9553  -3.9516  -3.9246  -3.9163  -3.9148
    -3.7902  -3.7578  -3.7574  -3.7053  -3.7048  -3.6393  -3.6123  -3.5679
    -3.5670  -3.5548  -3.5285  -3.2939  -3.2936  -3.2762  -3.2754  -3.2730
    -3.2723  -3.0491  -3.0480  -2.9874  -2.9860  -2.9767  -2.9757  -2.7949
    -2.6915  -2.6908  -2.6825  -2.6804  -2.6156  -2.6140  -2.5670  -2.5516
    -2.5504  -2.4713  -2.4695  -2.3434  -2.3426  -2.2903  -2.2874  -2.1954
    -2.1579  -2.1141  -2.1136  -2.1105  -2.0715  -1.9707  -1.8935  -1.8837
    -1.8699  -1.8664  -1.7838  -1.7784  -1.7564  -1.6494  -1.6440  -1.6270
    -1.6191  -1.5285  -1.5009  -1.4988  -1.4971  -1.4943  -1.4790  -1.4183
    -1.4048  -1.4007  -1.3996  -1.3704  -1.3692  -1.3644  -1.3521  -1.3111
    -1.2485  -1.2292  -1.2245  -1.2197  -1.1767  -1.1738  -1.1446  -1.0753
    -1.0058  -0.9719  -0.9692  -0.9337  -0.9273  -0.8965  -0.8915  -0.8869
    -0.7605  -0.7570  -0.7408  -0.6921  -0.6758  -0.6313  -0.6278  -0.4885
    -0.4868  -0.4571  -0.4091  -0.3235  -0.3180  -0.3064  -0.2870  -0.2848
    -0.2825  -0.2797  -0.1921  -0.1852  -0.1573  -0.1527  -0.1332  -0.1281
    -0.1081  -0.1035  -0.0641  -0.0538   0.0498   0.0758   0.0870   0.0915
     0.1559   0.2211   0.2473   0.2481   0.3862   0.3878   0.4507   0.4978
     0.5516   0.5533   0.5825   0.6035   0.6417   0.6424   0.7011   0.7022
     0.7491   0.7501   0.8134   0.8561   0.8582   0.9109   0.9133   0.9241
     0.9255   1.0064   1.1101   1.1125   1.1929   1.2051   1.2080   1.2136
     1.2957   1.3136   1.3154   1.4109   1.4130   1.4191   1.4212   1.4912
     1.5122   1.5134   1.5238   1.6453   1.6461   1.6698   1.6710   1.6787
     1.6794   1.6980   1.7010   1.8715   1.9138   1.9147   1.9217   1.9229
     2.1120   2.1474   2.5337   2.5387   2.5921   2.8368   2.9608   2.9618
     3.3625   3.3667   3.5593   3.6993   4.1730   4.1738   4.2010   4.3218
     4.4535   4.4623   4.6114   4.6252   4.8449   4.8496   5.4248   5.4791
     5.9955   6.0138   6.0679   6.4909   6.5125   6.6912

          k = 0.2000-0.1155 0.0000 ( 89052 PWs)   bands (ev):

   -21.7468 -19.4689 -18.8136  -9.1967  -8.3522  -6.9906  -5.6818  -5.2312
    -4.8323  -4.8317  -4.7181  -4.6211  -4.5819  -4.5303  -4.5211  -4.4812
    -4.4794  -4.2690  -4.2521  -4.0956  -4.0951  -4.0742  -4.0739  -3.7987
    -3.6640  -3.6632  -3.6345  -3.6236  -3.5662  -3.5653  -3.5536  -3.4967
    -3.4948  -3.4935  -3.4917  -3.4051  -3.3883  -3.3879  -3.2648  -3.2642
    -3.2633  -3.2031  -3.2013  -3.0490  -3.0460  -3.0116  -3.0095  -2.9831
    -2.7463  -2.7453  -2.7020  -2.6589  -2.6577  -2.6133  -2.6122  -2.4379
    -2.4346  -2.3681  -2.3680  -2.3232  -2.2901  -2.2887  -2.0860  -2.0704
    -1.9897  -1.9891  -1.9064  -1.9020  -1.8626  -1.8242  -1.7912  -1.7839
    -1.7667  -1.7457  -1.7434  -1.6987  -1.6234  -1.6085  -1.5961  -1.5927
    -1.5318  -1.5251  -1.5001  -1.4940  -1.4490  -1.4338  -1.4199  -1.3644
    -1.3343  -1.3120  -1.3101  -1.3082  -1.2181  -1.2148  -1.2084  -1.2064
    -1.1932  -1.1174  -1.1161  -1.1003  -1.0936  -1.0310  -1.0237  -1.0216
    -0.9717  -0.9698  -0.9317  -0.9307  -0.9172  -0.8298  -0.7741  -0.7436
    -0.7378  -0.7342  -0.7290  -0.7219  -0.6991  -0.6976  -0.6495  -0.6401
    -0.6298  -0.6148  -0.5697  -0.4045  -0.3367  -0.2772  -0.2282  -0.2265
    -0.2166  -0.2143  -0.1916  -0.1894  -0.0307  -0.0159  -0.0134   0.0722
     0.0888   0.1291   0.1381   0.1402   0.1495   0.2502   0.2530   0.2651
     0.2671   0.3471   0.3578   0.3587   0.3887   0.3892   0.5778   0.5963
     0.6126   0.6138   0.6170   0.6392   0.6526   0.7358   0.7434   0.7637
     0.7914   0.8066   0.8570   0.8575   0.8588   0.8607   0.9748   0.9761
     1.0038   1.0041   1.0974   1.1516   1.1523   1.1599   1.1611   1.1826
     1.2235   1.2250   1.2901   1.2911   1.3503   1.3506   1.3568   1.4054
     1.4059   1.4073   1.4120   1.4123   1.4184   1.4868   1.4879   1.6483
     1.6487   1.6605   1.6756   1.6861   1.6863   1.7246   1.7645   1.7648
     1.7816   1.8798   1.8804   1.9049   2.0612   2.0679   2.0684   2.0970
     2.1495   2.5254   2.5326   3.2336   3.2472   3.2771   3.4050   4.2610
     4.7074   4.7266   5.3847   5.3856   5.5240   5.5535   5.7699   5.8817
     6.3583   6.3681   6.6404   6.6939   6.7524   6.7638

          k = 0.2000 0.1155 0.0000 ( 89052 PWs)   bands (ev):

   -21.7468 -19.4690 -18.8136  -9.1967  -8.3522  -6.9906  -5.6818  -5.2312
    -4.8322  -4.8314  -4.7189  -4.6198  -4.5818  -4.5292  -4.5226  -4.4809
    -4.4796  -4.2691  -4.2521  -4.0958  -4.0951  -4.0752  -4.0731  -3.7987
    -3.6640  -3.6632  -3.6339  -3.6238  -3.5700  -3.5637  -3.5514  -3.4963
    -3.4954  -3.4930  -3.4921  -3.4050  -3.3891  -3.3872  -3.2657  -3.2638
    -3.2628  -3.2032  -3.2013  -3.0482  -3.0469  -3.0118  -3.0091  -2.9831
    -2.7464  -2.7452  -2.7025  -2.6588  -2.6576  -2.6135  -2.6118  -2.4373
    -2.4347  -2.3683  -2.3677  -2.3236  -2.2907  -2.2880  -2.0875  -2.0702
    -1.9897  -1.9889  -1.9054  -1.9023  -1.8649  -1.8242  -1.7884  -1.7841
    -1.7668  -1.7466  -1.7432  -1.6987  -1.6273  -1.6129  -1.5944  -1.5928
    -1.5251  -1.5179  -1.5007  -1.4939  -1.4489  -1.4337  -1.4250  -1.3644
    -1.3343  -1.3115  -1.3109  -1.3087  -1.2185  -1.2166  -1.2091  -1.2061
    -1.1932  -1.1188  -1.1147  -1.0999  -1.0937  -1.0283  -1.0232  -1.0216
    -0.9720  -0.9692  -0.9325  -0.9307  -0.9171  -0.8273  -0.7769  -0.7461
    -0.7396  -0.7377  -0.7311  -0.7073  -0.7038  -0.6963  -0.6613  -0.6422
    -0.6244  -0.6136  -0.5579  -0.4119  -0.3367  -0.2772  -0.2287  -0.2258
    -0.2164  -0.2142  -0.1918  -0.1891  -0.0308  -0.0168  -0.0148   0.0683
     0.0974   0.1306   0.1337   0.1385   0.1495   0.2506   0.2523   0.2645
     0.2673   0.3472   0.3576   0.3589   0.3885   0.3895   0.5780   0.5969
     0.6132   0.6143   0.6168   0.6412   0.6507   0.7390   0.7408   0.7635
     0.7914   0.8072   0.8569   0.8582   0.8589   0.8601   0.9745   0.9757
     1.0037   1.0046   1.0984   1.1500   1.1529   1.1595   1.1614   1.1826
     1.2235   1.2247   1.2898   1.2915   1.3503   1.3514   1.3568   1.4047
     1.4063   1.4073   1.4118   1.4131   1.4187   1.4872   1.4878   1.6483
     1.6490   1.6605   1.6756   1.6855   1.6865   1.7246   1.7642   1.7651
     1.7815   1.8785   1.8814   1.9050   2.0622   2.0663   2.0693   2.1005
     2.1447   2.5274   2.5316   3.2287   3.2463   3.2859   3.4023   4.2570
     4.7116   4.7264   5.3849   5.3855   5.5235   5.5535   5.7872   5.8639
     6.3588   6.3664   6.6106   6.6592   6.7530   6.7615

          k = 0.2000 0.3464 0.0000 ( 89052 PWs)   bands (ev):

   -21.7468 -19.4690 -18.8136  -9.1966  -8.3523  -6.7049  -5.4812  -5.4765
    -5.4050  -4.7106  -4.5865  -4.4021  -4.4015  -4.3667  -4.3615  -4.3302
    -4.3252  -4.3206  -4.2955  -4.2122  -4.2106  -3.8230  -3.8215  -3.8196
    -3.8186  -3.7549  -3.7329  -3.5914  -3.5700  -3.5605  -3.5495  -3.5324
    -3.5296  -3.4696  -3.4152  -3.4103  -3.3690  -3.3679  -3.3315  -3.2820
    -3.2792  -3.2404  -3.2366  -3.1644  -2.8904  -2.7884  -2.7858  -2.7765
    -2.7538  -2.7516  -2.7356  -2.7337  -2.6810  -2.6631  -2.5045  -2.4995
    -2.4913  -2.4165  -2.3895  -2.3396  -2.3389  -2.3147  -2.2353  -2.2321
    -2.0759  -2.0609  -2.0578  -2.0430  -1.9637  -1.9553  -1.9290  -1.9249
    -1.9191  -1.8490  -1.8463  -1.6958  -1.6722  -1.6701  -1.6642  -1.6051
    -1.6003  -1.5488  -1.5364  -1.5325  -1.5286  -1.4969  -1.4023  -1.3658
    -1.3627  -1.3538  -1.3511  -1.3473  -1.3318  -1.3049  -1.2853  -1.2129
    -1.2093  -1.1827  -1.1738  -1.1205  -1.1140  -1.0508  -1.0309  -0.9915
    -0.9867  -0.9814  -0.9368  -0.9355  -0.9284  -0.9151  -0.9098  -0.8874
    -0.8793  -0.8763  -0.8126  -0.8104  -0.7111  -0.6924  -0.6697  -0.6261
    -0.5913  -0.5872  -0.5856  -0.5618  -0.4084  -0.4048  -0.2617  -0.2430
    -0.2098  -0.1967  -0.1928  -0.1760  -0.1728  -0.1257  -0.1234  -0.0934
    -0.0911  -0.0326  -0.0067   0.0787   0.1084   0.1864   0.1908   0.2376
     0.2404   0.2458   0.2949   0.3085   0.4357   0.4375   0.4411   0.4929
     0.4957   0.5739   0.6272   0.6388   0.6541   0.6564   0.7280   0.7335
     0.7387   0.7483   0.7565   0.7744   0.7783   0.7811   0.7899   0.9181
     0.9901   0.9940   1.1302   1.1313   1.1520   1.2985   1.3001   1.3015
     1.3023   1.4071   1.4380   1.4411   1.4494   1.4514   1.4878   1.4922
     1.5160   1.5196   1.5223   1.5798   1.5862   1.6009   1.6693   1.6961
     1.6972   1.7315   1.7330   1.7766   1.9110   1.9620   1.9660   2.0444
     2.0471   2.0503   2.0690   2.1998   2.2025   2.6456   2.7267   2.7294
     3.2666   3.2679   3.3037   3.3120   3.9625   4.0334   4.0580   4.1847
     4.2356   4.2582   4.8978   5.3727   5.4283   5.4605   5.6137   5.7931
     6.0968   6.1914   6.2114   6.2415   6.2857   6.3525

          k = 0.2000-0.5774 0.0000 ( 89064 PWs)   bands (ev):

   -21.7468 -19.4690 -18.8136  -9.1965  -8.3522  -6.1706  -6.1685  -5.5618
    -4.9218  -4.9056  -4.6998  -4.5792  -4.3980  -4.3864  -4.2629  -4.2294
    -4.1201  -4.1188  -4.0122  -4.0110  -3.8858  -3.8842  -3.8830  -3.8481
    -3.8460  -3.8121  -3.8084  -3.6886  -3.6787  -3.6771  -3.6348  -3.6338
    -3.5563  -3.5305  -3.4378  -3.4211  -3.3533  -3.2623  -3.2616  -3.2433
    -3.2421  -3.2275  -3.1137  -3.1118  -3.0211  -3.0179  -2.8454  -2.8375
    -2.7769  -2.6769  -2.6754  -2.6254  -2.6246  -2.5164  -2.4675  -2.4187
    -2.4166  -2.3963  -2.3533  -2.3514  -2.3215  -2.2174  -2.2150  -2.1869
    -2.1856  -2.1771  -2.1757  -2.1746  -2.1036  -2.1005  -2.0718  -1.9726
    -1.9465  -1.9010  -1.8965  -1.7795  -1.7459  -1.7395  -1.7381  -1.6947
    -1.6509  -1.6496  -1.5699  -1.5391  -1.5362  -1.5324  -1.5269  -1.4895
    -1.4528  -1.4162  -1.4128  -1.3756  -1.3191  -1.3129  -1.2956  -1.2948
    -1.1873  -1.1407  -1.1384  -1.0928  -1.0908  -1.0518  -1.0504  -1.0334
    -1.0275  -1.0022  -1.0013  -0.9515  -0.9474  -0.9181  -0.9078  -0.9022
    -0.8997  -0.8987  -0.8800  -0.8504  -0.7868  -0.7812  -0.7766  -0.6454
    -0.5692  -0.5520  -0.4701  -0.4698  -0.3643  -0.3509  -0.3482  -0.3197
    -0.2598  -0.2582  -0.2561  -0.2346  -0.2319  -0.1471  -0.1173  -0.1137
    -0.0469  -0.0287  -0.0211   0.0289   0.0388   0.0908   0.0958   0.2310
     0.2947   0.2980   0.3162   0.3177   0.4103   0.4161   0.4168   0.4378
     0.4530   0.4607   0.4952   0.4969   0.6127   0.6161   0.6277   0.6805
     0.6837   0.7037   0.7132   0.7277   0.7323   0.8903   0.9393   0.9671
     1.0473   1.0518   1.1309   1.1322   1.2174   1.2602   1.2649   1.2669
     1.3719   1.3755   1.4453   1.4769   1.4853   1.4949   1.4978   1.5411
     1.5451   1.5765   1.6536   1.6541   1.6780   1.7055   1.7072   1.7127
     1.7194   1.7710   1.9117   1.9176   1.9187   1.9202   1.9219   1.9952
     2.0650   2.1090   2.2500   3.0681   3.0685   3.2904   3.3297   3.3560
     3.4722   3.4753   3.4813   3.9267   4.0798   4.0814   4.5396   4.5651
     4.5766   4.6840   4.6887   4.9022   4.9830   4.9999   5.1214   5.4354
     5.5178   5.5271   5.9191   6.1591   6.1653   6.3349

          k = 0.2000-0.3464 0.0000 ( 89052 PWs)   bands (ev):

   -21.7468 -19.4690 -18.8136  -9.1965  -8.3522  -6.7049  -5.4802  -5.4775
    -5.4050  -4.7108  -4.5874  -4.4025  -4.4011  -4.3656  -4.3627  -4.3296
    -4.3256  -4.3207  -4.2951  -4.2122  -4.2107  -3.8227  -3.8221  -3.8196
    -3.8181  -3.7549  -3.7328  -3.5915  -3.5688  -3.5616  -3.5499  -3.5318
    -3.5303  -3.4696  -3.4144  -3.4112  -3.3694  -3.3675  -3.3315  -3.2823
    -3.2789  -3.2402  -3.2370  -3.1643  -2.8904  -2.7888  -2.7854  -2.7764
    -2.7534  -2.7522  -2.7351  -2.7337  -2.6810  -2.6631  -2.5024  -2.5017
    -2.4917  -2.4165  -2.3894  -2.3402  -2.3382  -2.3147  -2.2345  -2.2329
    -2.0736  -2.0625  -2.0573  -2.0432  -1.9594  -1.9570  -1.9296  -1.9251
    -1.9190  -1.8484  -1.8465  -1.6950  -1.6720  -1.6697  -1.6642  -1.6062
    -1.6005  -1.5630  -1.5365  -1.5320  -1.5293  -1.4850  -1.3992  -1.3661
    -1.3636  -1.3548  -1.3529  -1.3474  -1.3315  -1.3048  -1.2853  -1.2119
    -1.2104  -1.1821  -1.1746  -1.1200  -1.1149  -1.0509  -1.0301  -0.9909
    -0.9866  -0.9818  -0.9392  -0.9370  -0.9304  -0.9142  -0.9093  -0.8877
    -0.8759  -0.8708  -0.8139  -0.8114  -0.7109  -0.6922  -0.6633  -0.6391
    -0.5923  -0.5900  -0.5857  -0.5522  -0.4077  -0.4050  -0.2617  -0.2428
    -0.2022  -0.2010  -0.1949  -0.1760  -0.1739  -0.1263  -0.1221  -0.0945
    -0.0900  -0.0319  -0.0067   0.0775   0.1085   0.1874   0.1914   0.2375
     0.2398   0.2449   0.2952   0.3084   0.4347   0.4385   0.4408   0.4924
     0.4955   0.5741   0.6293   0.6354   0.6542   0.6571   0.7288   0.7344
     0.7366   0.7511   0.7550   0.7755   0.7768   0.7800   0.7899   0.9181
     0.9888   0.9951   1.1293   1.1329   1.1511   1.2980   1.2995   1.3015
     1.3036   1.4073   1.4377   1.4402   1.4493   1.4517   1.4893   1.4910
     1.5150   1.5209   1.5218   1.5818   1.5839   1.6012   1.6694   1.6960
     1.6970   1.7318   1.7328   1.7765   1.9111   1.9633   1.9650   2.0475
     2.0486   2.0516   2.0637   2.2006   2.2022   2.6451   2.7275   2.7289
     3.2644   3.2691   3.3025   3.3122   3.9660   4.0205   4.0682   4.1845
     4.2414   4.2541   4.8970   5.3733   5.4289   5.4542   5.6173   5.8036
     6.0961   6.2037   6.2158   6.2308   6.2402   6.4085

          k = 0.4000-0.2309 0.0000 ( 89082 PWs)   bands (ev):

   -21.7468 -19.4689 -18.8136  -9.1965  -8.3521  -6.5675  -5.9323  -5.2763
    -4.8663  -4.8657  -4.7399  -4.6903  -4.5752  -4.4980  -4.3435  -4.2097
    -4.1674  -4.1399  -4.1390  -3.9537  -3.9530  -3.9245  -3.9160  -3.9151
    -3.7903  -3.7585  -3.7569  -3.7052  -3.7049  -3.6395  -3.6141  -3.5676
    -3.5673  -3.5531  -3.5284  -3.2943  -3.2934  -3.2764  -3.2750  -3.2732
    -3.2726  -3.0493  -3.0484  -2.9875  -2.9861  -2.9765  -2.9760  -2.7946
    -2.6916  -2.6910  -2.6820  -2.6806  -2.6151  -2.6146  -2.5670  -2.5520
    -2.5504  -2.4704  -2.4701  -2.3436  -2.3426  -2.2912  -2.2868  -2.1949
    -2.1578  -2.1154  -2.1132  -2.1098  -2.0682  -1.9704  -1.8931  -1.8813
    -1.8715  -1.8663  -1.7815  -1.7801  -1.7560  -1.6511  -1.6451  -1.6344
    -1.6201  -1.5442  -1.5003  -1.4997  -1.4978  -1.4931  -1.4657  -1.4194
    -1.4038  -1.4024  -1.4000  -1.3710  -1.3674  -1.3525  -1.3492  -1.3112
    -1.2485  -1.2279  -1.2242  -1.2198  -1.1758  -1.1752  -1.1463  -1.0751
    -1.0059  -0.9718  -0.9703  -0.9282  -0.9264  -0.8983  -0.8905  -0.8866
    -0.7606  -0.7570  -0.7442  -0.6785  -0.6761  -0.6524  -0.6286  -0.4881
    -0.4866  -0.4540  -0.4090  -0.3219  -0.3176  -0.3070  -0.2893  -0.2876
    -0.2813  -0.2800  -0.1921  -0.1826  -0.1562  -0.1526  -0.1323  -0.1269
    -0.1119  -0.1107  -0.0644  -0.0458   0.0497   0.0847   0.0870   0.0892
     0.1560   0.2182   0.2472   0.2484   0.3856   0.3878   0.4500   0.4966
     0.5519   0.5525   0.5823   0.6040   0.6416   0.6424   0.6987   0.7051
     0.7492   0.7499   0.8133   0.8566   0.8575   0.9116   0.9124   0.9243
     0.9255   1.0064   1.1089   1.1150   1.1933   1.2063   1.2071   1.2130
     1.2949   1.3138   1.3152   1.4104   1.4125   1.4201   1.4208   1.4914
     1.5127   1.5129   1.5238   1.6448   1.6464   1.6700   1.6710   1.6784
     1.6793   1.6976   1.7009   1.8715   1.9142   1.9144   1.9217   1.9226
     2.1120   2.1474   2.5323   2.5412   2.5913   2.8367   2.9608   2.9616
     3.3641   3.3650   3.5599   3.6994   4.1732   4.1735   4.1977   4.3349
     4.4517   4.4535   4.6091   4.6270   4.8468   4.8490   5.4278   5.4831
     5.9927   6.0121   6.0923   6.4895   6.5034   6.6925

          k = 0.4000-0.0000 0.0000 ( 89052 PWs)   bands (ev):

   -21.7468 -19.4689 -18.8136  -9.1965  -8.3522  -6.7049  -5.4798  -5.4779
    -5.4050  -4.7107  -4.5874  -4.4023  -4.4012  -4.3658  -4.3625  -4.3291
    -4.3262  -4.3207  -4.2950  -4.2120  -4.2108  -3.8227  -3.8223  -3.8194
    -3.8181  -3.7548  -3.7329  -3.5916  -3.5692  -3.5616  -3.5498  -3.5316
    -3.5302  -3.4697  -3.4139  -3.4118  -3.3691  -3.3676  -3.3314  -3.2818
    -3.2794  -3.2402  -3.2372  -3.1643  -2.8904  -2.7884  -2.7861  -2.7765
    -2.7533  -2.7524  -2.7349  -2.7339  -2.6810  -2.6631  -2.5023  -2.5020
    -2.4914  -2.4165  -2.3894  -2.3399  -2.3386  -2.3145  -2.2342  -2.2332
    -2.0753  -2.0618  -2.0560  -2.0432  -1.9600  -1.9571  -1.9296  -1.9255
    -1.9190  -1.8483  -1.8463  -1.6974  -1.6718  -1.6700  -1.6643  -1.6049
    -1.6004  -1.5661  -1.5362  -1.5323  -1.5288  -1.4785  -1.4023  -1.3662
    -1.3624  -1.3551  -1.3516  -1.3474  -1.3313  -1.3046  -1.2854  -1.2114
    -1.2100  -1.1818  -1.1750  -1.1193  -1.1154  -1.0509  -1.0296  -0.9904
    -0.9868  -0.9824  -0.9396  -0.9360  -0.9317  -0.9141  -0.9090  -0.8879
    -0.8760  -0.8697  -0.8146  -0.8121  -0.7108  -0.6860  -0.6648  -0.6445
    -0.5916  -0.5906  -0.5854  -0.5531  -0.4075  -0.4054  -0.2617  -0.2429
    -0.2031  -0.1999  -0.1958  -0.1760  -0.1738  -0.1260  -0.1224  -0.0942
    -0.0901  -0.0327  -0.0066   0.0774   0.1086   0.1879   0.1921   0.2378
     0.2394   0.2447   0.2949   0.3084   0.4350   0.4388   0.4401   0.4932
     0.4954   0.5740   0.6304   0.6346   0.6546   0.6566   0.7283   0.7348
     0.7370   0.7513   0.7550   0.7758   0.7770   0.7797   0.7899   0.9177
     0.9896   0.9945   1.1298   1.1320   1.1514   1.2980   1.2993   1.3016
     1.3039   1.4071   1.4377   1.4403   1.4495   1.4515   1.4894   1.4908
     1.5154   1.5211   1.5217   1.5822   1.5837   1.6010   1.6693   1.6961
     1.6971   1.7319   1.7326   1.7766   1.9109   1.9635   1.9643   2.0471
     2.0488   2.0529   2.0620   2.2002   2.2026   2.6451   2.7279   2.7290
     3.2646   3.2689   3.3018   3.3137   3.9664   4.0174   4.0699   4.1847
     4.2438   4.2521   4.8971   5.3734   5.4267   5.4594   5.6170   5.8015
     6.0966   6.1943   6.2125   6.2298   6.2377   6.4134

          k = 0.4000 0.2309 0.0000 ( 89082 PWs)   bands (ev):

   -21.7468 -19.4690 -18.8136  -9.1965  -8.3523  -6.5675  -5.9323  -5.2764
    -4.8662  -4.8654  -4.7432  -4.6850  -4.5761  -4.4981  -4.3436  -4.2098
    -4.1676  -4.1399  -4.1390  -3.9556  -3.9515  -3.9246  -3.9162  -3.9148
    -3.7903  -3.7577  -3.7575  -3.7054  -3.7047  -3.6393  -3.6131  -3.5679
    -3.5669  -3.5546  -3.5276  -3.2939  -3.2936  -3.2762  -3.2753  -3.2735
    -3.2721  -3.0493  -3.0480  -2.9875  -2.9862  -2.9768  -2.9757  -2.7951
    -2.6916  -2.6908  -2.6826  -2.6804  -2.6155  -2.6139  -2.5672  -2.5518
    -2.5503  -2.4711  -2.4694  -2.3432  -2.3425  -2.2903  -2.2875  -2.1953
    -2.1580  -2.1143  -2.1126  -2.1105  -2.0727  -1.9706  -1.8935  -1.8845
    -1.8700  -1.8664  -1.7839  -1.7787  -1.7569  -1.6489  -1.6439  -1.6273
    -1.6191  -1.5309  -1.5014  -1.4993  -1.4967  -1.4945  -1.4728  -1.4182
    -1.4049  -1.4027  -1.4002  -1.3703  -1.3690  -1.3629  -1.3521  -1.3110
    -1.2484  -1.2288  -1.2241  -1.2198  -1.1772  -1.1736  -1.1450  -1.0751
    -1.0058  -0.9714  -0.9696  -0.9323  -0.9272  -0.8967  -0.8908  -0.8867
    -0.7606  -0.7569  -0.7404  -0.6875  -0.6758  -0.6379  -0.6284  -0.4896
    -0.4855  -0.4554  -0.4091  -0.3228  -0.3196  -0.3066  -0.2871  -0.2851
    -0.2831  -0.2790  -0.1921  -0.1856  -0.1575  -0.1533  -0.1330  -0.1299
    -0.1085  -0.1049  -0.0640  -0.0511   0.0499   0.0738   0.0867   0.0943
     0.1559   0.2204   0.2472   0.2482   0.3863   0.3881   0.4500   0.4982
     0.5521   0.5538   0.5826   0.6037   0.6418   0.6423   0.7009   0.7030
     0.7491   0.7501   0.8133   0.8562   0.8578   0.9113   0.9125   0.9241
     0.9256   1.0072   1.1104   1.1119   1.1928   1.2050   1.2081   1.2134
     1.2954   1.3136   1.3155   1.4107   1.4135   1.4197   1.4212   1.4904
     1.5125   1.5136   1.5237   1.6454   1.6462   1.6698   1.6712   1.6785
     1.6794   1.6977   1.7008   1.8715   1.9136   1.9147   1.9216   1.9229
     2.1120   2.1474   2.5344   2.5380   2.5933   2.8364   2.9608   2.9617
     3.3628   3.3665   3.5589   3.6996   4.1730   4.1737   4.1997   4.3247
     4.4536   4.4612   4.6114   4.6254   4.8459   4.8488   5.4251   5.4785
     5.9935   6.0107   6.0735   6.4905   6.5177   6.6856

          k = 0.4000-0.6928 0.0000 ( 89064 PWs)   bands (ev):

   -21.7468 -19.4690 -18.8136  -9.1964  -8.3522  -6.1711  -6.1680  -5.5618
    -4.9222  -4.9054  -4.6999  -4.5786  -4.3979  -4.3866  -4.2629  -4.2294
    -4.1203  -4.1187  -4.0124  -4.0108  -3.8869  -3.8836  -3.8825  -3.8487
    -3.8455  -3.8124  -3.8083  -3.6887  -3.6787  -3.6768  -3.6348  -3.6338
    -3.5558  -3.5306  -3.4375  -3.4212  -3.3538  -3.2625  -3.2613  -3.2435
    -3.2420  -3.2276  -3.1139  -3.1118  -3.0216  -3.0175  -2.8454  -2.8375
    -2.7772  -2.6769  -2.6751  -2.6255  -2.6245  -2.5165  -2.4674  -2.4186
    -2.4166  -2.3963  -2.3538  -2.3511  -2.3216  -2.2173  -2.2148  -2.1869
    -2.1855  -2.1772  -2.1757  -2.1744  -2.1043  -2.0996  -2.0723  -1.9731
    -1.9465  -1.9008  -1.8960  -1.7795  -1.7486  -1.7395  -1.7378  -1.6949
    -1.6510  -1.6497  -1.5712  -1.5398  -1.5362  -1.5320  -1.5262  -1.4877
    -1.4497  -1.4156  -1.4119  -1.3740  -1.3196  -1.3144  -1.2966  -1.2947
    -1.1871  -1.1411  -1.1381  -1.0928  -1.0903  -1.0515  -1.0508  -1.0332
    -1.0282  -1.0022  -1.0009  -0.9517  -0.9488  -0.9183  -0.9066  -0.9019
    -0.8996  -0.8986  -0.8794  -0.8499  -0.7868  -0.7825  -0.7766  -0.6445
    -0.5692  -0.5544  -0.4701  -0.4697  -0.3642  -0.3517  -0.3475  -0.3197
    -0.2603  -0.2582  -0.2567  -0.2347  -0.2311  -0.1475  -0.1176  -0.1136
    -0.0470  -0.0278  -0.0193   0.0304   0.0405   0.0852   0.0973   0.2310
     0.2941   0.2985   0.3158   0.3174   0.4101   0.4157   0.4184   0.4379
     0.4518   0.4615   0.4948   0.4966   0.6113   0.6169   0.6278   0.6798
     0.6845   0.7042   0.7128   0.7276   0.7325   0.8906   0.9402   0.9671
     1.0464   1.0521   1.1305   1.1325   1.2176   1.2601   1.2649   1.2675
     1.3720   1.3756   1.4452   1.4772   1.4855   1.4954   1.4981   1.5404
     1.5455   1.5759   1.6535   1.6544   1.6782   1.7055   1.7071   1.7122
     1.7199   1.7707   1.9115   1.9175   1.9188   1.9198   1.9220   1.9952
     2.0650   2.1090   2.2497   3.0681   3.0685   3.2889   3.3314   3.3558
     3.4735   3.4745   3.4817   3.9267   4.0800   4.0809   4.5406   4.5670
     4.5747   4.6843   4.6881   4.9010   4.9781   5.0011   5.1290   5.4348
     5.5180   5.5263   5.9175   6.1587   6.1646   6.3274

          k = 0.4000-0.4619 0.0000 ( 89064 PWs)   bands (ev):

   -21.7468 -19.4690 -18.8136  -9.1964  -8.3521  -6.1722  -6.1669  -5.5619
    -4.9209  -4.9062  -4.7025  -4.5768  -4.3978  -4.3871  -4.2628  -4.2295
    -4.1202  -4.1188  -4.0123  -4.0109  -3.8870  -3.8839  -3.8824  -3.8485
    -3.8459  -3.8159  -3.8047  -3.6888  -3.6787  -3.6764  -3.6353  -3.6334
    -3.5550  -3.5305  -3.4377  -3.4214  -3.3547  -3.2624  -3.2613  -3.2442
    -3.2411  -3.2278  -3.1138  -3.1119  -3.0221  -3.0169  -2.8455  -2.8376
    -2.7766  -2.6773  -2.6752  -2.6251  -2.6248  -2.5167  -2.4674  -2.4186
    -2.4163  -2.3966  -2.3536  -2.3512  -2.3218  -2.2171  -2.2149  -2.1869
    -2.1859  -2.1766  -2.1755  -2.1742  -2.1051  -2.0985  -2.0702  -1.9709
    -1.9466  -1.9009  -1.8963  -1.7795  -1.7456  -1.7394  -1.7385  -1.6964
    -1.6510  -1.6496  -1.5908  -1.5415  -1.5377  -1.5328  -1.5298  -1.4860
    -1.4218  -1.4210  -1.4090  -1.3765  -1.3193  -1.3121  -1.2990  -1.2934
    -1.1867  -1.1419  -1.1374  -1.0919  -1.0911  -1.0523  -1.0500  -1.0346
    -1.0282  -1.0025  -1.0007  -0.9535  -0.9491  -0.9178  -0.9051  -0.9015
    -0.8989  -0.8986  -0.8787  -0.8492  -0.7936  -0.7807  -0.7773  -0.6464
    -0.5627  -0.5555  -0.4714  -0.4682  -0.3642  -0.3513  -0.3473  -0.3214
    -0.2632  -0.2588  -0.2567  -0.2368  -0.2288  -0.1494  -0.1171  -0.1134
    -0.0478  -0.0231  -0.0168   0.0376   0.0415   0.0632   0.1087   0.2320
     0.2936   0.2992   0.3157   0.3179   0.4079   0.4152   0.4201   0.4380
     0.4535   0.4590   0.4951   0.4966   0.6125   0.6174   0.6265   0.6814
     0.6829   0.7046   0.7124   0.7269   0.7329   0.8903   0.9392   0.9675
     1.0470   1.0518   1.1305   1.1325   1.2173   1.2591   1.2641   1.2689
     1.3710   1.3763   1.4453   1.4771   1.4847   1.4939   1.4993   1.5411
     1.5446   1.5766   1.6526   1.6549   1.6784   1.7050   1.7076   1.7101
     1.7218   1.7710   1.9123   1.9177   1.9186   1.9197   1.9215   1.9952
     2.0653   2.1090   2.2500   3.0680   3.0687   3.2859   3.3380   3.3533
     3.4711   3.4754   3.4817   3.9258   4.0798   4.0813   4.5367   4.5668
     4.5771   4.6848   4.6891   4.8981   4.9605   5.0073   5.1568   5.4265
     5.5227   5.5267   5.9166   6.1593   6.1642   6.3120

     the Fermi energy is     1.6853 ev

!    total energy              =  -27903.19709603 Ry

     total all-electron energy =  -1327174.267291 Ry
     estimated scf accuracy    <       0.00000095 Ry
     smearing contrib. (-TS)   =       0.00235105 Ry
     internal energy E=F+TS    =  -27903.19944708 Ry

     The total energy is F=E-TS. E is the sum of the following terms:
     one-electron contribution =  -26501.30169700 Ry
     hartree contribution      =   13557.75152710 Ry
     xc contribution           =    -919.49580123 Ry
     ewald contribution        =   11470.75762336 Ry
     one-center paw contrib.   =  -25510.91109931 Ry

     convergence has been achieved in  21 iterations

     negative rho (up, down):  1.282E-02 0.000E+00

     Forces acting on atoms (cartesian axes, Ry/au):

     atom    1 type  1   force =    -0.00001748    0.00000608   -0.00344997
     atom    2 type  1   force =    -0.00015330    0.00002876   -0.00331096
     atom    3 type  1   force =     0.00019893   -0.00004123   -0.00318372
     atom    4 type  1   force =     0.00002379   -0.00000334   -0.00333499
     atom    5 type  1   force =    -0.00005321    0.00015405   -0.00329853
     atom    6 type  1   force =     0.00004909   -0.00001270   -0.00332721
     atom    7 type  1   force =     0.00002324    0.00000316   -0.00346743
     atom    8 type  1   force =    -0.00004625   -0.00000914   -0.00337374
     atom    9 type  1   force =     0.00005385   -0.00007938   -0.00332378
     atom   10 type  1   force =     0.00014968   -0.00011221    0.00273162
     atom   11 type  1   force =     0.00023316   -0.00011624    0.00220550
     atom   12 type  1   force =    -0.00028327    0.00003742    0.00330534
     atom   13 type  1   force =     0.00020439   -0.00005506    0.00277535
     atom   14 type  1   force =     0.00010729   -0.00003125    0.00318195
     atom   15 type  1   force =    -0.00030187    0.00017957    0.00312673
     atom   16 type  1   force =     0.00009193   -0.00008550    0.00351112
     atom   17 type  1   force =     0.00014322   -0.00010322    0.00292307
     atom   18 type  1   force =    -0.00015952    0.00030237    0.00288233
     atom   19 type  1   force =    -0.00029032    0.00010999    0.00005131
     atom   20 type  1   force =    -0.00003447    0.00007186    0.00003525
     atom   21 type  1   force =     0.00029885    0.00006298    0.00028881
     atom   22 type  1   force =    -0.00021460    0.00016864    0.00018200
     atom   23 type  1   force =     0.00016689    0.00013656    0.00031584
     atom   24 type  1   force =     0.00013513   -0.00009582    0.00057446
     atom   25 type  1   force =    -0.00004784    0.00000912    0.00056695
     atom   26 type  1   force =    -0.00007840   -0.00022516    0.00019493
     atom   27 type  1   force =     0.00011504   -0.00025153    0.00018698
     atom   28 type  1   force =     0.00002564   -0.00018593   -0.00012961
     atom   29 type  1   force =    -0.00016231    0.00013677   -0.00006107
     atom   30 type  1   force =     0.00012052   -0.00012057    0.00012896
     atom   31 type  1   force =     0.00058580   -0.00031138    0.00034843
     atom   32 type  1   force =    -0.00015993    0.00009469   -0.00000746
     atom   33 type  1   force =    -0.00031553   -0.00001538   -0.00008655
     atom   34 type  1   force =     0.00009970    0.00010949   -0.00018074
     atom   35 type  1   force =    -0.00006564   -0.00009303    0.00006531
     atom   36 type  1   force =    -0.00008525    0.00024091   -0.00011056
     atom   37 type  2   force =     0.00054402    0.00038726   -0.00059438
     atom   38 type  3   force =     0.00314260   -0.00195924    0.00427254
     atom   39 type  2   force =    -0.00003829   -0.00027642   -0.00061382
     atom   40 type  4   force =    -0.00008078    0.00003457    0.00014039
     atom   41 type  4   force =     0.00035345   -0.00003050    0.00046762
     atom   42 type  2   force =    -0.00427796    0.00194000   -0.00260826

     Total force =     0.008055     Total SCF correction =     0.002394
     SCF correction compared to forces is large: reduce conv_thr to get better values

     negative rho (up, down):  1.282E-02 0.000E+00

     negative rho (up, down):  1.282E-02 0.000E+00

     negative rho (up, down):  1.282E-02 0.000E+00

     negative rho (up, down):  1.282E-02 0.000E+00

     negative rho (up, down):  1.282E-02 0.000E+00

     negative rho (up, down):  1.282E-02 0.000E+00

     negative rho (up, down):  1.282E-02 0.000E+00

     negative rho (up, down):  1.282E-02 0.000E+00

     negative rho (up, down):  1.282E-02 0.000E+00

     negative rho (up, down):  1.282E-02 0.000E+00

     negative rho (up, down):  1.282E-02 0.000E+00

     negative rho (up, down):  1.282E-02 0.000E+00

     negative rho (up, down):  1.282E-02 0.000E+00

     negative rho (up, down):  1.282E-02 0.000E+00

     negative rho (up, down):  1.282E-02 0.000E+00

     negative rho (up, down):  1.282E-02 0.000E+00

     negative rho (up, down):  1.282E-02 0.000E+00

     negative rho (up, down):  1.282E-02 0.000E+00

     negative rho (up, down):  1.282E-02 0.000E+00

     negative rho (up, down):  1.282E-02 0.000E+00

     negative rho (up, down):  1.282E-02 0.000E+00

     negative rho (up, down):  1.282E-02 0.000E+00

     negative rho (up, down):  1.282E-02 0.000E+00

     negative rho (up, down):  1.282E-02 0.000E+00

     negative rho (up, down):  1.282E-02 0.000E+00

     negative rho (up, down):  1.282E-02 0.000E+00

     negative rho (up, down):  1.282E-02 0.000E+00

     negative rho (up, down):  1.282E-02 0.000E+00

     negative rho (up, down):  1.282E-02 0.000E+00

     negative rho (up, down):  1.282E-02 0.000E+00

     negative rho (up, down):  1.282E-02 0.000E+00

     negative rho (up, down):  1.282E-02 0.000E+00

     negative rho (up, down):  1.282E-02 0.000E+00

     negative rho (up, down):  1.282E-02 0.000E+00
 BEEFens 2000 ensemble energies
             -0.615806808783883E+02
             -0.365493009592615E+01
             -0.160476815936259E+02
              0.436039350261793E+02
             -0.224398452841509E+02
             -0.208090441416986E+02
             -0.359022792708932E+02
             -0.879019633795100E+02
             -0.471612269489334E+02
             -0.479482666705729E+02
             -0.374458883201833E+02
              0.234082003225893E+01
              0.409118146129418E+01
              0.763653451187830E+01
              0.271973654516083E+01
              0.481837318798832E+02
             -0.212311520760712E+02
             -0.232867014758459E+02
              0.195331879690088E+02
             -0.114071191487504E+03
              0.544827756991419E+02
             -0.293004539668390E+02
             -0.343487724195214E+01
             -0.115899451942314E+02
             -0.886497521309639E+01
             -0.477049387706430E+01
              0.896127571950631E+02
             -0.189554784103915E+02
             -0.917923227819153E+01
             -0.526239151073053E+02
              0.826912318039708E+02
             -0.189179257409275E+02
             -0.380961986023758E+02
              0.252834079974796E+02
             -0.289504521152753E+01
              0.167003114948204E+02
             -0.488232540825129E+01
              0.109016826906172E+02
              0.292235012619349E+02
             -0.104847785132673E+03
              0.566682354082223E+02
              0.144167579297398E+02
             -0.181458845411237E+01
             -0.366669977718533E+02
              0.124757226451593E+02
             -0.149284378600353E+02
              0.405230597655294E+02
              0.370374586800791E+02
             -0.311865655253671E+02
             -0.279389515852989E+02
             -0.332272616865196E+02
             -0.357334093712366E+02
              0.138220842348901E+02
             -0.498850010330584E+02
              0.117854978414140E+02
              0.632257313916132E+02
              0.645672283241195E+02
              0.361051493085889E+02
              0.157134142509935E+02
              0.274820077345887E+02
              0.904835741355889E+02
              0.215901716028405E+02
             -0.557055635526995E+02
             -0.159052966024346E+02
             -0.239862155679629E+02
              0.639157588370871E+02
             -0.785402891417514E+02
             -0.680562527832163E+02
             -0.263498670419901E+02
             -0.664886777148558E+01
             -0.477595140208500E+02
              0.274735892062291E+02
              0.817092283494208E+01
              0.888339407953197E+01
             -0.402793036740797E+02
             -0.352136846722724E+02
             -0.550190050982904E+02
              0.395774100219646E+02
             -0.300734678665988E+02
              0.269146134683426E+02
             -0.722810003523120E+01
             -0.322535481709257E+02
             -0.584973671905592E+02
             -0.178887984676026E+02
             -0.924671062930236E+01
             -0.127545199918838E+02
              0.418186024365876E+02
              0.693332245605060E+02
             -0.392130182171303E+02
             -0.807043601226807E+02
             -0.222548472513390E+02
              0.113197287909067E+03
             -0.600651220415633E+02
              0.360716506196567E+02
             -0.973292426819000E+01
             -0.672783500057081E+02
              0.258600507316972E+02
              0.403644717323920E+02
             -0.200773004030685E+02
              0.404850992010902E+02
             -0.299888263400621E+02
             -0.486255628932262E+02
              0.879442624481037E+02
              0.460732135892121E+02
              0.340924168816385E+02
              0.148395465602998E+02
              0.208666213982939E+02
              0.868846307649515E+02
             -0.260741788555209E+02
              0.793589747765930E+01
             -0.144498348022418E+03
              0.184445192438698E+02
             -0.726286385619276E+02
              0.153002718824306E+02
              0.207867662023417E+02
             -0.338064029583794E+02
             -0.565064407434572E+02
              0.659698287996355E+01
             -0.308337841167705E+02
              0.313661633950720E+02
             -0.536919153034437E+02
              0.167367998770862E+01
             -0.362463186987274E+02
             -0.430184386200278E+01
             -0.106626959420785E+01
              0.183499872045806E+02
              0.140101496550176E+01
             -0.663540167262227E+01
              0.599598605867110E+02
              0.921902817529805E+02
              0.491108914807131E+02
              0.841753608410254E+02
             -0.117345251649480E+02
              0.144628238541260E+02
              0.549523416365661E+02
             -0.111666448761935E+02
             -0.747372967342571E+02
             -0.389911430694899E+02
             -0.528943962742839E+02
             -0.281160329456359E+02
              0.330921212595592E+02
             -0.118553474390092E+03
             -0.189270973465241E+02
              0.420506937234443E+02
             -0.392031206063128E+02
             -0.370043319189623E+02
              0.551913198155946E+02
              0.407739115406090E+02
             -0.358622741274497E+02
              0.140812422542589E+02
             -0.276857948434624E+02
              0.348738381850512E+02
              0.457721047380005E+01
              0.213450825132779E+02
             -0.897615596007465E+02
             -0.487653123597324E+02
             -0.101107653793081E+02
              0.321724025541778E+01
             -0.373039617123525E+02
              0.107592238873422E+03
             -0.233785076757263E+02
             -0.403227265476813E+02
              0.395028659924385E+02
             -0.501376444901538E+02
             -0.368204398418824E+02
              0.329180190532254E+02
              0.125906788884279E+02
              0.166307098430204E+02
              0.118105812791890E+02
             -0.134385898029933E+02
              0.227597120858597E+02
              0.599183501438271E+02
             -0.316367110821049E+02
              0.165263978667381E+02
              0.947954634164229E+02
              0.345287512296462E+02
             -0.741484724607369E+01
             -0.191114819851676E+02
              0.155649393909373E+03
             -0.166852632560410E+02
              0.368506785906664E+02
              0.198185356468553E+02
              0.366695252762768E+02
              0.905828434046837E+02
              0.549973490454813E+02
             -0.248780243780462E+01
              0.230982466898826E+02
              0.491843395240642E+02
              0.369548809598944E+02
             -0.534522052711321E+02
              0.949763442553201E+02
             -0.838587119778935E+02
             -0.200524169977431E+02
              0.591471107589091E+02
              0.687463866871275E+01
              0.793458659623809E+01
              0.345855939458578E+02
              0.301966590059471E+02
              0.359038296195283E+02
             -0.646953676542962E+02
              0.293009785855281E+01
             -0.301273821418279E+02
             -0.884604407723778E+01
             -0.145663261282084E+01
             -0.735174800505245E+01
             -0.423540920217590E+01
              0.871911991717091E+02
             -0.102111358553764E+02
             -0.280798858905145E+02
             -0.500086625815659E+01
              0.141676827244574E+02
             -0.572981531473501E+02
             -0.413996882264896E+02
             -0.387246488366456E+02
             -0.639324729547943E+02
             -0.172136919046020E+02
             -0.453522138915217E+02
              0.166542478579067E+02
             -0.240320587197510E+01
             -0.106304462143895E+02
             -0.947925921937667E+01
              0.816881544623845E+01
             -0.245883731086217E+02
              0.698854847839766E+02
             -0.819696690347195E+02
             -0.143205233834831E+02
             -0.176512071094806E+02
              0.184509070502627E+02
              0.216594056667532E+02
             -0.470711212033634E+02
             -0.204113992562839E+02
              0.447469310034913E+02
             -0.279581878844305E+02
              0.188889798718258E+02
              0.388480726255456E+02
             -0.323211285275033E+01
              0.115838877086381E+03
             -0.232717289487757E+02
             -0.346131464324949E+02
              0.586819900872047E+01
             -0.231801217956801E+02
              0.535503255456340E+02
             -0.343054183076882E+02
              0.107735214443449E+02
              0.649503031406853E+02
             -0.128738224357380E+02
              0.121990342354163E+03
              0.127795653345180E+03
             -0.659912411960522E+02
              0.598897481961005E+02
              0.169052300626279E+02
             -0.525854549476109E+02
              0.219076564689436E+02
              0.359328055143492E+02
              0.368893261052889E+02
              0.141215932496422E+01
              0.161198712550837E+02
              0.706521868822447E+02
             -0.250197144446862E+02
              0.183129083233236E+02
              0.750312258351971E+02
             -0.378265360889646E+02
             -0.132271883957507E+02
              0.516529621163624E+02
              0.301618553101967E+02
              0.791719986674815E+02
              0.226878714077229E+02
              0.638451492013581E+01
              0.284376053363652E+02
              0.389254220806834E+02
             -0.478654149496238E+02
              0.337406278408486E+01
              0.132418749892492E+02
              0.115215564315810E+02
              0.223729028724489E+02
             -0.583652953179569E+02
              0.370918256281140E+02
             -0.450375320849740E+02
             -0.351889592532040E+02
              0.180277825642755E+02
             -0.183402279228686E+02
              0.562945763210651E+02
             -0.259487984966248E+02
              0.271007308886606E+02
              0.372489835248136E+02
              0.840870353263993E+02
              0.582763184021106E+02
              0.469316854049506E+02
             -0.107319740455869E+02
             -0.399935137714454E+01
             -0.336833755726121E+02
              0.762052369785825E+02
              0.809111724126920E+02
              0.367523810834881E+02
             -0.195653037001616E+02
              0.519151538862994E+02
             -0.163943305625867E+02
              0.218249288005139E+02
              0.624088568874909E+02
              0.210304486383470E+01
             -0.105944111097230E+02
             -0.286536560444999E+02
             -0.519630435431017E+02
              0.959593327214278E+02
              0.446469519200192E+02
             -0.567783003515095E+02
             -0.989423122676979E+01
              0.254175769396864E+02
             -0.101683417218347E+02
              0.601537242070701E+02
              0.154275520941140E+02
              0.810819716522553E+02
              0.283576054508327E+02
             -0.268108044863353E+02
              0.252343474914273E+02
             -0.510121788467831E+01
             -0.328099651044608E+02
              0.135724170074798E+02
              0.208425425766231E+02
              0.945711371133586E+02
              0.808982278857562E+02
              0.558956175965508E+02
              0.740948725489723E+02
              0.810089382179774E+01
             -0.277580539579452E+02
              0.165037950013663E+02
             -0.373242034149954E+02
             -0.484093525043476E+02
             -0.572612721048453E+02
             -0.270988320723620E+02
             -0.111308505956489E+03
             -0.296100605078045E+02
             -0.850120443847360E+02
              0.212888271440258E+02
             -0.484001974722564E+02
              0.403276166604738E+02
             -0.955442477510069E+02
             -0.334467732943584E+02
              0.555654026915328E+02
              0.210867579836845E+02
             -0.843389072325508E+02
              0.639675440050613E+02
             -0.260835359934088E+02
              0.520518696056660E+02
             -0.247232622849294E+02
             -0.763281509922281E+02
              0.114430654088776E+02
             -0.621175390120571E+02
             -0.170031236654937E+02
             -0.146427507444798E+01
              0.424934663864250E+02
              0.128854385959420E+03
             -0.468464444020441E+02
             -0.368008863404557E+02
             -0.101190040117950E+01
             -0.132439374764058E+02
             -0.834432868625371E+02
             -0.605463986072573E+02
              0.524813212648071E+02
             -0.292662084650775E+02
              0.171549427309188E+02
             -0.496733217891263E+02
             -0.134007059738088E+02
             -0.443339663365849E+02
              0.572948382235235E+02
              0.153475197799919E+02
             -0.234963302259702E+02
             -0.128912208222812E+02
              0.682504430181807E+01
             -0.634925081620941E+01
              0.448057599320728E+02
             -0.255930477058658E+02
              0.285929255332019E+01
              0.344157947849305E+02
              0.173758470532654E+02
             -0.162618157009076E+02
              0.158570069356395E+03
              0.546105274918788E+02
              0.126108516214637E+01
              0.162561864743508E+02
             -0.624021816008383E+02
              0.319481285732681E+02
             -0.732884779627775E+02
             -0.256409267136303E+02
             -0.531088168383404E+02
             -0.222554285767017E+02
              0.577393963807280E+02
             -0.545561563718717E+02
              0.163878871277167E+02
             -0.411131041741987E+01
              0.391798959646866E+01
             -0.439079554201494E+02
             -0.484563110085634E+02
             -0.399350199272703E+01
             -0.431326993145509E+02
             -0.220931379229265E+02
             -0.444332709242371E+02
             -0.120584953150713E+02
             -0.364095420862849E+02
             -0.524228296014001E+02
              0.216696867381093E+02
             -0.212019632561015E+02
              0.190790971356830E+02
              0.992499805057076E+01
             -0.748987980497837E+02
             -0.556251800801722E+02
             -0.404418714835123E+02
              0.360041430802708E+02
              0.268330182381516E+01
             -0.636539078855779E+02
              0.594012851030888E+02
             -0.407412366468517E+02
              0.552779857275611E+02
             -0.294112444114597E+02
             -0.453457578624740E+02
              0.302544969865172E+02
             -0.668217179325996E+02
             -0.385578039826162E+02
              0.682221753642424E+02
              0.206774910937340E+02
             -0.365923636887377E+02
              0.497583137780953E+02
             -0.176685592521141E+02
             -0.328445492246332E+02
             -0.306627086001987E+02
             -0.508082054938130E+02
              0.252709072747537E+02
             -0.946146001973136E+02
             -0.852553028671715E+02
             -0.747019269239388E+01
             -0.310980236588782E+02
             -0.584131597145488E+02
              0.732719195624690E+02
              0.133514121693719E+03
             -0.365631103745544E+02
             -0.256513418407042E+01
             -0.646778768340754E+02
              0.659986620245888E+02
              0.173947660665350E+02
             -0.184554794017321E+02
             -0.415683865690223E+02
              0.151098271694549E+02
             -0.595482083469738E+02
             -0.200224149797627E+02
             -0.918318088056454E+02
              0.342286053520426E+02
              0.171207658562081E+02
              0.179906750646239E+01
             -0.713713519640180E+01
             -0.335154557534768E+02
             -0.771249165981033E+01
              0.127481159397411E+03
             -0.201360723327163E+02
             -0.444355567909383E+02
             -0.693819443176269E+02
              0.111205843874374E+02
             -0.347361874095014E+02
              0.602540984104238E+01
              0.266217305443494E+02
              0.102771926562131E+02
              0.282686028249844E+02
              0.121952035670220E+02
              0.638260287010227E+02
              0.321321432819419E+02
             -0.331574891685802E+02
              0.362233159753472E+02
              0.384774662819414E+02
              0.122713179539084E+02
              0.493363560200480E+02
             -0.228391731568673E+02
              0.776485686494954E+02
              0.175218736070241E+02
             -0.276951499026592E+02
             -0.733771507614864E+01
             -0.189010634185777E+02
              0.264951433133285E+02
             -0.238789741834303E+02
             -0.191776710787479E+00
             -0.869810512290042E+01
              0.821762248152761E+02
              0.508490972805093E+02
             -0.697726600258969E+02
             -0.483091958235994E+01
             -0.563567364651053E+02
             -0.161835293031839E+02
             -0.271703754992232E+02
              0.390180225105678E+01
              0.526494029444608E+00
             -0.261548492491842E+02
              0.831682040317676E+01
             -0.614454743154930E+01
             -0.130305445134184E+02
              0.871825467760446E+02
              0.184634068715651E+02
             -0.818771896349144E+02
             -0.464723507437990E+02
              0.958520671539644E+02
              0.281630142141070E+02
             -0.107922244018602E+02
              0.106207289950590E+03
             -0.197933662527608E+02
             -0.124428399515559E+02
             -0.549824420842924E+01
              0.109782799435460E+02
              0.276545406409472E+02
              0.784748257257974E+01
              0.309519484419826E+02
             -0.190011557422762E+02
             -0.308603979996393E+02
             -0.423788799022905E+02
             -0.484489573547451E+02
              0.470487134834121E+02
              0.128972510531116E+02
              0.393362844939611E+02
              0.135768812232433E+02
              0.868809291703804E+02
              0.159077809369229E+02
             -0.857493444390415E+02
             -0.339465969928048E+02
              0.135193208827418E+02
             -0.306991635931454E+02
              0.635764945023562E+02
             -0.912535520798701E+01
              0.151524825889213E+02
              0.504968103713072E+02
             -0.718829082882175E+02
              0.151967084671266E+03
              0.211561394888621E+02
              0.274680406419701E+02
              0.353028175992349E+02
              0.105217301669637E+02
             -0.159821328169278E+01
              0.363719291464342E+02
             -0.362374761983862E+02
              0.785514861005498E+02
              0.695581010547880E+02
             -0.412056181827604E+02
              0.152382618723813E+02
              0.680946093762852E+02
             -0.227335767948214E+02
              0.156581731885265E+02
              0.441276495373017E+02
              0.428885609967333E+02
             -0.796581620871027E+02
             -0.154485595106312E+02
             -0.361433745339710E+02
             -0.159492041269505E+01
             -0.773222627257559E+01
             -0.544280878876873E+01
             -0.183422959982380E+02
             -0.298235390457883E+02
              0.648920424650376E+01
              0.113272673356894E+02
              0.543809776824693E+02
             -0.396696856051824E+02
              0.380271923414455E+02
              0.445506370397250E+02
             -0.189248430100727E+02
              0.885045294213578E+02
             -0.707907943417238E+02
             -0.104744359023849E+03
             -0.664888158856282E+01
             -0.282623729035276E+01
              0.388165108793044E+01
              0.800874543870436E+02
             -0.108010492826988E+02
              0.422772301445160E+02
              0.451484446000930E+02
              0.390941452392515E+02
             -0.100187130380189E+02
              0.637134375786029E+02
             -0.136102338590569E+02
             -0.312756087997655E+02
             -0.486472601674969E+02
              0.596615040791211E+01
              0.375883994253797E+02
             -0.609743749474188E+01
              0.398726854907654E+02
             -0.175073465346378E+01
              0.664465986149154E+02
              0.190616746166493E+02
              0.100865115826994E+02
             -0.122199891394932E+02
              0.337159301383037E+02
              0.368477066422120E+02
              0.235560482634916E+02
             -0.541801541301965E+00
             -0.558451444533089E+02
              0.265180731032186E+02
              0.178180536936030E+02
              0.408330904699435E+02
              0.277164213153978E+02
              0.377558793426821E+02
             -0.613694554724461E+01
              0.255371129129170E+02
             -0.302208216276631E+02
             -0.202015312844640E+01
             -0.577465489706101E+02
             -0.312884850238245E+02
              0.385045179597392E+02
             -0.949195753831220E+02
              0.298804051806533E+02
              0.186328795162481E+02
              0.852618945146653E+02
             -0.304248528419586E+02
              0.333968934978306E+02
             -0.139404273622346E+02
             -0.471206591402214E+02
             -0.772317872429679E+02
             -0.539693481085421E+01
             -0.873512187799350E+02
              0.201850115034449E+02
             -0.250835892921690E+02
              0.310348014612505E+02
              0.239547590350195E+02
             -0.245098105005855E+02
             -0.269479801461304E+02
              0.397133200612890E+02
             -0.596587260801041E+02
             -0.118503814090143E+02
             -0.198944740625115E+02
              0.216184137822131E+02
             -0.896613829285053E+01
              0.369178645679457E+01
             -0.203715738939220E+02
              0.566971401942393E+02
             -0.446697786876287E+02
              0.806748569609340E+01
              0.594375627398545E+02
             -0.328500076793115E+02
              0.362988421778405E+01
             -0.885677091714092E+01
             -0.680151801017080E+02
             -0.489664019626611E+02
             -0.871614396723407E+01
              0.244767372366194E+02
              0.306831929915386E+02
              0.867743569860255E+01
             -0.424942884782604E+01
              0.155281168264057E+02
             -0.446637888207726E+02
              0.330519439076346E+01
             -0.538807704373795E+02
             -0.328386491393302E+02
              0.482020344573020E+02
             -0.299563739282676E+02
              0.632305402278739E+02
             -0.217759888435446E+02
              0.359386232663993E+02
              0.245605817275885E+02
             -0.653237031341914E+02
             -0.284968961782125E+02
              0.941171496065422E+01
             -0.377230479238277E+02
             -0.345533382270888E+02
             -0.842470455072403E+02
             -0.548039154529264E+02
             -0.518387238730565E+02
             -0.422188216845734E+02
             -0.940395354282259E+00
              0.102079595223077E+02
              0.108541122205065E+01
              0.156369712351820E+02
             -0.558027406772362E+02
              0.143917508628521E+02
              0.259783883322182E+02
             -0.677034420986670E+02
             -0.711260404429437E+02
             -0.436830670578895E+02
             -0.175822722322931E+02
              0.181597575682929E+02
              0.453917502536365E+01
             -0.432946185331152E+02
              0.371530661832144E+02
             -0.218944550693282E+02
              0.525152638200393E+02
             -0.900215284488005E+02
              0.606439340016099E+02
             -0.217187241494057E+01
             -0.374652368012457E+02
             -0.220576343450838E+02
              0.472777921685925E+01
              0.381418151776408E+02
             -0.767357688442303E+02
[...]
              0.286790733186172E+02
              0.143855601492985E+03
              0.246612494930332E+02
              0.125215211034797E+02
             -0.471850118858538E+02
             -0.647359348629866E+02
             -0.191257826089824E+02
              0.333956552253881E+02
             -0.437604092371885E+01
              0.193094040487715E+02
              0.341064500246298E+02
             -0.596095644963825E+02
              0.226542064067065E+02
              0.588976798755184E+02
              0.561922278651987E+02
             -0.430052068544808E+01
             -0.136395780930809E+01
             -0.100531299266431E+02
             -0.489650542592341E+02
             -0.685259599687682E+02
              0.797818676736195E+02
             -0.536387176515714E+01
             -0.596727528142825E+02
              0.173188163138468E+01
             -0.209113749514853E+02
              0.951649666200401E+02
             -0.219480229212296E+02
             -0.358667256428618E+02
              0.339853106988392E+02
             -0.147956606776079E+02
              0.396378215274148E+02
             -0.246021437460951E+01
              0.102550424969449E+03
              0.496702167483846E+02
             -0.510403348178354E+01
             -0.327404557438741E+02
              0.236353718334929E+02
             -0.536811713717214E+02
             -0.129144617662764E+02
              0.594955704389767E+02
             -0.291661799671298E+02
             -0.445076983735431E+02
             -0.226146593796685E+02
              0.526290074041129E+02
              0.126947837268304E+02
             -0.861340817446860E+02
              0.308967923252969E+02
              0.154398528717109E+02
              0.589760006149154E+01
             -0.520507798965217E+02
             -0.369197598469600E+01
              0.328330608451884E+02
              0.520617288196818E+02
              0.641626042125845E+02
              0.233402582068096E+02
              0.864196080414189E+00
             -0.505375239028764E+02
             -0.516435876616297E+02
             -0.758759438843785E+02
             -0.628712093560364E+01
              0.313806048514689E+02
             -0.384917264657761E+01
              0.554506423507748E+02
             -0.322752342902037E+02
              0.168961444517839E+02
             -0.104777431206955E+02
             -0.293679011437889E+02
              0.594189170690119E+02
              0.801005708623967E+01
              0.613152677157608E+02
              0.518116286770703E+01
              0.268635825137430E+02
             -0.194916512034522E+02
              0.595337366147402E+02
             -0.113144233524281E+02
             -0.158922370105383E+00
             -0.801562053047972E+02
             -0.129806847117471E+02
              0.729690121775623E+02
              0.683421590173762E+02
              0.255107484444827E+02
             -0.132369062369068E+02
              0.343836741163472E+01
             -0.176021010342099E+02
             -0.215894257548908E+01
              0.920525536309472E+02
              0.125181846913063E+01
             -0.194204689832331E+02
             -0.112387683944726E+03
             -0.560557567344124E+02
             -0.380393527364374E+02
             -0.668606064457156E+02
             -0.564121032489993E+02
             -0.693413762407467E+02
             -0.453895156135845E+02
             -0.415835538677779E+02
             -0.458588622672089E+02
              0.490249393740825E+02
             -0.297689396007984E+02
             -0.101024911894602E+03
              0.425333753610220E+02
             -0.264550313519115E+02
             -0.802642447110549E+02
              0.958587153501303E+02
             -0.223235644860579E+02
              0.230772196480710E+02
              0.461336639430436E+02
             -0.129904410259132E+01
              0.257613187675433E+02
              0.470068635999465E+01
              0.403935816569906E+00
             -0.152345698313244E+02
             -0.726414740740481E+02
              0.134955737196897E+02
             -0.131274581131137E+03
              0.633518810488285E+02
             -0.446777265523771E+02
             -0.164712453180247E+02
             -0.160408537949442E+02
              0.736325532593836E+01
             -0.230421410361041E+02
              0.301723989509150E+02
             -0.528626590708625E+02
              0.373130514042826E+02
              0.376720300217813E+02
              0.170834693391182E+02
              0.101796455464563E+02
              0.200888401125123E+02
              0.632536771628821E+01
              0.315161434333810E+02
             -0.814691835623250E+01
             -0.601452110765007E+02
              0.773965561440252E+01
             -0.156874927297228E+02
             -0.199476619270166E+01
              0.513415125892624E+02
             -0.838993069904374E+02
             -0.147587688483179E+01
              0.577657992000468E+00
              0.100676513336074E+02
              0.323314711772313E+02
             -0.125636234355000E+02
              0.847860888928074E+02
              0.494644121312222E+02
             -0.185878519674704E+02
             -0.974979940278564E+01
              0.111251461847115E+01
              0.781186967867479E+02
             -0.593858760345295E+02
             -0.107287449062715E+03
              0.313371665113648E+02
             -0.164326318457169E+02
             -0.141459282540908E+02
              0.133104567987974E+02
              0.780263229503071E+02
              0.471041394912288E+02
             -0.156076283601041E+02
             -0.510399536273217E+02
             -0.560023874895711E+01
              0.310736091248170E+02
             -0.113771439891491E+02
             -0.766393816413179E+02
             -0.276929969824121E+01
             -0.903487332090198E+02
             -0.482479324943704E+02
              0.780317908343111E+02
             -0.490936830323610E+02
             -0.646731166844828E+02
             -0.522374969348112E+02
             -0.355016767168660E+02
              0.345723088709178E+02
              0.833790790956182E+02
             -0.363153181963179E+01
              0.280526725708781E+02
             -0.186219784064469E+02
             -0.703762127649523E+02
              0.472510106743143E+02
             -0.451893586053412E+02
              0.326181520911693E+02
              0.381395212023234E+02
             -0.672652147619829E+01
              0.397094777773236E+02
              0.444745984813285E+02
              0.102266038871294E+03
             -0.158290505323454E+02
             -0.462683211450982E+02
             -0.622277652638182E+02
             -0.126000543860484E+02
             -0.237530663576434E+02
              0.104511063732525E+03
             -0.455709307735486E+02
              0.106400416394360E+02
              0.980729284175328E+01
             -0.268161671879212E+02
             -0.810769555538212E+02
             -0.709638553955222E+01
              0.994281331265991E+02
              0.957361839299759E+01
              0.821469547978580E+01
             -0.534422886439557E+02
             -0.613389300782999E+02
             -0.578241478482586E+01
              0.507110670789185E+02
             -0.225595795398460E+02
              0.109499684855941E+03
             -0.441722905611276E+02
              0.148883985126267E+02
             -0.227167866853540E+02
             -0.727750402236891E+02
              0.175133424221190E+01
             -0.509338372454872E+02
             -0.771259349241317E+02
              0.627037444297571E+01
              0.237744546856669E+01
              0.521352413300403E+02
              0.190687019293191E+02
             -0.328572739826094E+02
              0.233768291512501E+02
             -0.822852728924109E+02
             -0.529198761715144E+02
              0.915372128880029E+02
              0.143938870620275E+02
             -0.189628223129961E+02
             -0.356836845011878E+02
             -0.272988272647615E+01
             -0.596557776671239E+01
              0.842870713661832E+02
              0.423732663674408E+02
             -0.167986969420748E+02
             -0.122845641574565E+02
             -0.433598651763639E+02
             -0.203653967355954E+02
             -0.679627574465041E+02
              0.467119054489379E+02
              0.556431747987554E+01
              0.146538550731914E+02
              0.158065743024767E+02
             -0.680697937517696E+00
             -0.171229694629262E+02
             -0.312201400401065E+01
             -0.101977287657138E+03
             -0.232376473158261E+02
             -0.774336776313714E+01
             -0.959557083171319E+01
              0.554550035067150E+02
              0.632905627902805E+02
              0.166896581844850E+02
             -0.984372611638607E+02
              0.656837648516022E+02
             -0.218366216892748E+02
             -0.382556781045971E+02
             -0.877097563102571E+02
             -0.391934567354283E+02
              0.572739762652638E+02
              0.248737396566723E+02
              0.535503027743323E+01
              0.297023219366068E+02
             -0.572999918242941E+02
             -0.428892827645677E+02
              0.523903244836467E+02
              0.393067479606399E+02
              0.526337771037140E+02
             -0.124951678272024E+01
              0.698497575187099E+01
              0.577222135048585E+02
              0.977578818358097E+02
             -0.303641207917920E+02
              0.328602741010543E+02
             -0.120806263757329E+02
             -0.418633332289038E+02
             -0.319342454533190E+02
             -0.304442860669008E+02
             -0.133230509035337E+02
             -0.530645171512689E+02
             -0.220711228972194E+02
             -0.143154650032640E+03
              0.373723862334242E+02
              0.210133787639006E+02
             -0.396272659983297E+01
             -0.386037658316366E+02
             -0.207655756039773E+02
             -0.534494624442502E+02
              0.152927089312770E+02
              0.831973956895028E+02
             -0.254656115537958E+02
             -0.165600271011076E+02
              0.240874154553782E+02
             -0.496398756070525E+02
              0.893599205308106E+02
              0.157151509648515E+02
              0.228195857329425E+02
              0.498051212671061E+02
              0.319897846690657E+01
              0.550412288216005E+02
              0.145414553972847E+02
             -0.107732369514383E+02
              0.747678025584750E+01
              0.701582253101265E+00
              0.737653777528581E+02
              0.102506284671379E+02
              0.122933122237920E+02
             -0.131324045244924E+02
              0.134080248266385E+02
             -0.924868933970932E+02
             -0.331779798536650E+02
             -0.463939404527135E+02
              0.493284957153221E+02
             -0.295695192579428E+02
             -0.667685844732787E+02
              0.547236829806817E+02
             -0.124175576831724E+02
              0.446514248515354E+02
             -0.912403394055237E+02
              0.235929372570766E+02
              0.867798247940962E+01
              0.586091083008853E+01
             -0.843961608405669E+01
             -0.913201970216164E+01
              0.486772640779160E+02
              0.203232615604895E+01
             -0.482000350445146E+02
             -0.178746672078310E+02
              0.280392992862265E+02
             -0.119665240225568E+03
             -0.943436556476528E+02
              0.398617040890019E+01
              0.119331594281004E+02
             -0.419672709411730E+02
             -0.395395269735013E+01
              0.113677899542225E+03
              0.311863324632257E+02
             -0.579597220742509E+02
              0.937746108576789E+01
             -0.977241678865458E+01
              0.107357753949518E+02
             -0.342427017730416E+02
              0.198060457676131E+02
              0.288360529289106E+02
             -0.310050233860562E+01
              0.109795992535569E+03
             -0.141615479326877E+02
             -0.320916594655888E+02
              0.146549392318656E+02
              0.472733124003433E+02
             -0.361350441118057E+02
             -0.320413794289736E+01
              0.978895924183402E+02
             -0.468316210394471E+01
              0.629471596731048E+02
              0.137875494022817E+02
             -0.917058912846976E+01
             -0.308262028228386E+02
              0.574634314899844E+02
             -0.522719691020488E+02
             -0.227359904606448E+01
             -0.172456342367034E+02
             -0.411621707523391E+02
              0.186838946506824E+02
              0.242416826310854E+02
              0.117017968872910E+02
              0.667751431061333E+00
             -0.389952065308497E+02
              0.218011749982844E+02
             -0.676568736984075E+01
             -0.250029102521907E+02
             -0.213912646753039E+02
              0.206581922409991E+02
             -0.606137189532285E+01
             -0.354648846626463E+02
             -0.108195258994175E+03
              0.103596902744462E+02
              0.252320854554448E+02
             -0.393892250308507E+02
             -0.214058352080031E+02
              0.819084839779832E+02
              0.661889124990017E+01
              0.316448460301830E+02
              0.400245398324253E+01
              0.327261774093458E+02
              0.653248844392999E+01
             -0.378919545056322E+02
             -0.236722549501420E+01
              0.887367265727676E+01
              0.277890866571393E+02
              0.793947312955859E+02
              0.514457138802098E+02
              0.216837401330736E+00
              0.171078748700058E+02
              0.621971738383969E+02
              0.239734463641812E+02
             -0.763668636261917E+02
             -0.277781398944182E+02
              0.153486674802679E+02
              0.574301684401814E+01
              0.258847445837605E+02
             -0.555627968731515E+02
              0.913200525725864E+01
              0.391656310915008E+02
              0.505246719002257E+02
             -0.441331230262426E+02
             -0.695831052446761E+01
             -0.212893883244988E+01
             -0.136388168193424E+02
             -0.370054324776600E+02
             -0.217842608713932E+02
             -0.205896707212376E+01
              0.805868693230036E+01
              0.427437896316675E+02
             -0.312744671997174E+02
              0.837868883448558E+02
              0.332850335202027E+02
              0.223550635622331E+02
              0.338107731756802E+02
              0.327763594752092E+02
              0.350556990180091E+02
              0.545213380177009E+02
             -0.440729853644968E+02
              0.628780315450162E+02
             -0.113901567817601E+03
              0.312087464627157E+02
             -0.108101027243539E+03
              0.866550987115021E+02
              0.701924785080353E+02
             -0.111304930310757E+02
             -0.500539005043838E+02
             -0.435529561773701E+02
             -0.632069186228699E+02
             -0.637888617560438E+02
              0.559940261224632E+02
              0.411836139352168E+02
              0.240357021185479E+02
              0.378488419943747E+02
              0.408697401152767E+02
             -0.387753868175168E+02
             -0.200300745613299E+02
              0.594737945035380E+02
             -0.117854977773070E+02
              0.559036714894960E+02
              0.710136354206406E+02
             -0.556957801906020E+01
             -0.716912817870488E+02
             -0.877599985657298E+00
             -0.242793216316292E+01
             -0.897752206941743E+01
             -0.176813122539409E+01
             -0.662719080811328E+02
             -0.213197991710657E+02
              0.553092596715234E+01
              0.912130650240766E+01
              0.475949078211797E+02
             -0.403458698921936E+02
              0.666545813438134E+02
             -0.431180528385257E+02
              0.213826598513833E+02
              0.356310668482041E+02
 
 BEEF-vdW xc energy contributions
           1 :   -793.851395070367     
           2 :    728.661534559088     
           3 :   -616.235673543335     
           4 :    484.438855621327     
           5 :   -361.026951066086     
           6 :    265.699085774592     
           7 :   -205.941327620692     
           8 :    177.180691569097     
           9 :   -166.785897213463     
          10 :    160.139757873086     
          11 :   -146.383423414489     
          12 :    121.656708339680     
          13 :   -88.9519863003476     
          14 :    55.2140175071689     
          15 :   -27.3954581991107     
          16 :    9.24248074115155     
          17 :  -1.050051483991865E-002
          18 :   -4.63036764332276     
          19 :    10.1580442359597     
          20 :   -20.5042569521765     
          21 :    36.3436112242731     
          22 :   -55.0573479620278     
          23 :    72.2282637472534     
          24 :   -83.8531352110743     
          25 :    88.1760326711138     
          26 :   -86.3247370317908     
          27 :    81.5594080443826     
          28 :   -77.5949245874933     
          29 :    76.8357405164375     
          30 :   -79.3563891846350     
          31 :   -87.0163110176845     
          32 :   -66.5352764322099     

     Writing output data file ./pwscf.save/
 
     init_run     :    340.59s CPU    345.19s WALL (       1 calls)
     electrons    :  14664.53s CPU  14816.77s WALL (       1 calls)
     forces       :    103.16s CPU    104.40s WALL (       1 calls)

     Called by init_run:
     wfcinit      :    291.76s CPU    295.29s WALL (       1 calls)
     potinit      :     45.44s CPU     45.78s WALL (       1 calls)
     hinit0       :      1.45s CPU      1.50s WALL (       1 calls)

     Called by electrons:
     c_bands      :  12183.12s CPU  12301.99s WALL (      22 calls)
     sum_band     :   1726.58s CPU   1741.84s WALL (      22 calls)
     v_of_rho     :    136.70s CPU    141.18s WALL (      22 calls)
     newd         :     34.58s CPU     48.31s WALL (      22 calls)
     PAW_pot      :    147.41s CPU    147.43s WALL (      22 calls)
     mix_rho      :    482.29s CPU    483.04s WALL (      22 calls)
     vdW_kernel   :     33.49s CPU     33.50s WALL (       1 calls)

     Called by c_bands:
     init_us_2    :     84.99s CPU     85.20s WALL (     598 calls)
     cegterg      :  11307.56s CPU  11416.21s WALL (     286 calls)

     Called by *egterg:
     cdiaghg      :    102.67s CPU    102.71s WALL (    1913 calls)
     h_psi        :   7211.90s CPU   7250.40s WALL (    1939 calls)
     s_psi        :   1216.28s CPU   1216.47s WALL (    1939 calls)
     g_psi        :     17.45s CPU     17.46s WALL (    1640 calls)

     Called by h_psi:
     h_psi:calbec :   1139.66s CPU   1139.93s WALL (    1939 calls)
     vloc_psi     :   4827.84s CPU   4830.04s WALL (    1939 calls)
     add_vuspsi   :   1216.72s CPU   1216.93s WALL (    1939 calls)

     General routines
     calbec       :   1667.06s CPU   1667.43s WALL (    2277 calls)
     fft          :     49.47s CPU     49.49s WALL (    3342 calls)
     ffts         :    155.40s CPU    155.45s WALL (   10998 calls)
     fftw         :   4959.84s CPU   4961.43s WALL (  369074 calls)
 
     Parallel routines
 
     PWSCF        :      4h14m CPU      4h16m WALL

 
   This run was terminated on:   2:23:15  27Sep2022            

=------------------------------------------------------------------------------=
   JOB DONE.
=------------------------------------------------------------------------------=
