
     Program PWSCF v.6.7MaX starts on 26Sep2022 at 21: 9:42 

     This program is part of the open-source Quantum ESPRESSO suite
     for quantum simulation of materials; please cite
         "P. Giannozzi et al., J. Phys.:Condens. Matter 21 395502 (2009);
         "P. Giannozzi et al., J. Phys.:Condens. Matter 29 465901 (2017);
          URL http://www.quantum-espresso.org", 
     in publications or presentations arising from this work. More details at
     http://www.quantum-espresso.org/quote

     Parallel version (MPI), running on     1 processors

     MPI processes distributed on     1 nodes
     Reading input from oh-ensemble.in
Warning: card &CELL ignored
Warning: card / ignored

     Current dimensions of program PWSCF are:
     Max number of different atomic species (ntypx) = 10
     Max number of k-points (npk) =  40000
     Max angular momentum in pseudopotentials (lmaxx) =  3
     file Pt.pbe-n-kjpaw_psl.1.0.0.UPF: wavefunction(s)  6S 5D renormalized
     file O.pbe-nl-kjpaw_psl.1.0.0.UPF: wavefunction(s)  2S 2P renormalized
     file H.pbe-kjpaw_psl.1.0.0.UPF: wavefunction(s)  1S renormalized

     **************************************************************************
     Initializing libbeef V0.1.2 with the BEEF-vdW functional.
     Citation: Wellendorff et al., PRB 85, 235149 (2012).
     **************************************************************************


     IMPORTANT: XC functional enforced from input :
     Exchange-correlation= BEEF-VDW
                           (   1   4  43  14   2   0   0)
     Any further DFT definition will be discarded
     Please, verify this is what you really want


     Subspace diagonalization in iterative solution of the eigenvalue problem:
     a serial algorithm will be used

 
     G-vector sticks info
     --------------------
     sticks:   dense  smooth     PW     G-vecs:    dense   smooth      PW
     Sum        4267    4267   1159               694943   694943   97873
 


     bravais-lattice index     =            0
     lattice parameter (alat)  =      16.0349  a.u.
     unit-cell volume          =   11061.4409 (a.u.)^3
     number of atoms/cell      =           38
     number of atomic types    =            3
     number of electrons       =       367.00
     number of Kohn-Sham states=          221
     kinetic-energy cutoff     =      60.0000  Ry
     charge density cutoff     =     240.0000  Ry
     scf convergence threshold =      1.0E-06
     mixing beta               =       0.7000
     number of iterations used =            8  local-TF  mixing
     Exchange-correlation= BEEF-VDW
                           (   1   4  43  14   2   0   0)

     celldm(1)=  16.034858  celldm(2)=   0.000000  celldm(3)=   0.000000
     celldm(4)=   0.000000  celldm(5)=   0.000000  celldm(6)=   0.000000

     crystal axes: (cart. coord. in units of alat)
               a(1) = (   1.000000   0.000000   0.000000 )  
               a(2) = (   0.500000   0.866025   0.000000 )  
               a(3) = (   0.000000   0.000000   3.098031 )  

     reciprocal axes: (cart. coord. in units 2 pi/alat)
               b(1) = (  1.000000 -0.577350  0.000000 )  
               b(2) = (  0.000000  1.154701  0.000000 )  
               b(3) = (  0.000000  0.000000  0.322786 )  


     PseudoPot. # 1 for Pt read from file:
     /users/bkreitz1/quantum-espresso/potentials/Pt.pbe-n-kjpaw_psl.1.0.0.UPF
     MD5 check sum: 04dc8a03c51ece93fc7b5889c2958091
     Pseudo is Projector augmented-wave + core cor, Zval = 10.0
     Generated using 'atomic' code by A. Dal Corso  v.6.7MaX
     Shape of augmentation charge: PSQ
     Using radial grid of 1277 points,  6 beta functions with: 
                l(1) =   0
                l(2) =   0
                l(3) =   1
                l(4) =   1
                l(5) =   2
                l(6) =   2
     Q(r) pseudized with 0 coefficients 


     PseudoPot. # 2 for O  read from file:
     /users/bkreitz1/quantum-espresso/potentials/O.pbe-nl-kjpaw_psl.1.0.0.UPF
     MD5 check sum: eef08af8b58d9ec80f8fdb78829eb7cf
     Pseudo is Projector augmented-wave + core cor, Zval =  6.0
     Generated using 'atomic' code by A. Dal Corso  v.6.7MaX
     Shape of augmentation charge: PSQ
     Using radial grid of 1095 points,  4 beta functions with: 
                l(1) =   0
                l(2) =   0
                l(3) =   1
                l(4) =   1
     Q(r) pseudized with 0 coefficients 


     PseudoPot. # 3 for H  read from file:
     /users/bkreitz1/quantum-espresso/potentials/H.pbe-kjpaw_psl.1.0.0.UPF
     MD5 check sum: ae98473e6dc62675f0d0baffdab24f65
     Pseudo is Projector augmented-wave, Zval =  1.0
     Generated using 'atomic' code by A. Dal Corso  v.6.7MaX
     Shape of augmentation charge: PSQ
     Using radial grid of  929 points,  2 beta functions with: 
                l(1) =   0
                l(2) =   0
     Q(r) pseudized with 0 coefficients 


     atomic species   valence    mass     pseudopotential
        Pt            10.00   195.08400     Pt( 1.00)
        O              6.00    15.99900     O ( 1.00)
        H              1.00     1.00800     H ( 1.00)

     No symmetry found



   Cartesian axes

     site n.     atom                  positions (alat units)
         1           Pt  tau(   1) = (   0.0000000   0.0000000   1.0017346  )
         2           Pt  tau(   2) = (   0.3333333   0.0000000   1.0017346  )
         3           Pt  tau(   3) = (   0.6666667   0.0000000   1.0017346  )
         4           Pt  tau(   4) = (   0.1666667   0.2886751   1.0017346  )
         5           Pt  tau(   5) = (   0.5000000   0.2886751   1.0017346  )
         6           Pt  tau(   6) = (   0.8333333   0.2886751   1.0017346  )
         7           Pt  tau(   7) = (   0.3333333   0.5773503   1.0017346  )
         8           Pt  tau(   8) = (   0.6666667   0.5773503   1.0017346  )
         9           Pt  tau(   9) = (   1.0000000   0.5773503   1.0017346  )
        10           Pt  tau(  10) = (   0.1666667   0.0962250   1.2739001  )
        11           Pt  tau(  11) = (   0.5000000   0.0962250   1.2739001  )
        12           Pt  tau(  12) = (   0.8333333   0.0962250   1.2739001  )
        13           Pt  tau(  13) = (   0.3333333   0.3849002   1.2739001  )
        14           Pt  tau(  14) = (   0.6666667   0.3849002   1.2739001  )
        15           Pt  tau(  15) = (   1.0000000   0.3849002   1.2739001  )
        16           Pt  tau(  16) = (   0.5000000   0.6735753   1.2739001  )
        17           Pt  tau(  17) = (   0.8333333   0.6735753   1.2739001  )
        18           Pt  tau(  18) = (   1.1666667   0.6735753   1.2739001  )
        19           Pt  tau(  19) = (   0.0006358   0.1921194   1.5420269  )
        20           Pt  tau(  20) = (   0.3326895   0.1920743   1.5420326  )
        21           Pt  tau(  21) = (   0.6666515   0.1917580   1.5412529  )
        22           Pt  tau(  22) = (   0.1667531   0.4798022   1.5464634  )
        23           Pt  tau(  23) = (   0.4993969   0.4814510   1.5412508  )
        24           Pt  tau(  24) = (   0.8339848   0.4814986   1.5412588  )
        25           Pt  tau(  25) = (   0.3348410   0.7706643   1.5469527  )
        26           Pt  tau(  26) = (   0.6667023   0.7705160   1.5420262  )
        27           Pt  tau(  27) = (   0.9989203   0.7705176   1.5464395  )
        28           Pt  tau(  28) = (  -0.0129954  -0.0074977   1.8153344  )
        29           Pt  tau(  29) = (   0.3462797  -0.0076499   1.8148612  )
        30           Pt  tau(  30) = (   0.6665298   0.0004555   1.8205801  )
        31           Pt  tau(  31) = (   0.1665089   0.3036974   1.8148889  )
        32           Pt  tau(  32) = (   0.5017984   0.2897122   1.8136216  )
        33           Pt  tau(  33) = (   0.8311644   0.2898452   1.8135378  )
        34           Pt  tau(  34) = (   0.3336642   0.5770020   1.8205772  )
        35           Pt  tau(  35) = (   0.6665940   0.5748962   1.8135402  )
        36           Pt  tau(  36) = (   0.9995529   0.5770939   1.8206457  )
        37           O   tau(  37) = (   0.1647200   0.0952057   1.9802935  )
        38           H   tau(  38) = (   0.1606885   0.0931055   2.0956978  )

     number of k points=    13  Marzari-Vanderbilt smearing, width (Ry)=  0.0200
                       cart. coord. in units 2pi/alat
        k(    1) = (   0.0000000   0.0000000   0.0000000), wk =   0.0800000
        k(    2) = (   0.0000000   0.2309401   0.0000000), wk =   0.1600000
        k(    3) = (   0.0000000   0.4618802   0.0000000), wk =   0.1600000
        k(    4) = (   0.2000000  -0.1154701   0.0000000), wk =   0.1600000
        k(    5) = (   0.2000000   0.1154701   0.0000000), wk =   0.1600000
        k(    6) = (   0.2000000   0.3464102   0.0000000), wk =   0.1600000
        k(    7) = (   0.2000000  -0.5773503   0.0000000), wk =   0.1600000
        k(    8) = (   0.2000000  -0.3464102   0.0000000), wk =   0.1600000
        k(    9) = (   0.4000000  -0.2309401   0.0000000), wk =   0.1600000
        k(   10) = (   0.4000000  -0.0000000   0.0000000), wk =   0.1600000
        k(   11) = (   0.4000000   0.2309401   0.0000000), wk =   0.1600000
        k(   12) = (   0.4000000  -0.6928203   0.0000000), wk =   0.1600000
        k(   13) = (   0.4000000  -0.4618802   0.0000000), wk =   0.1600000

     Dense  grid:   694943 G-vectors     FFT dimensions: (  80,  80, 250)

     Estimated max dynamical RAM per process >       8.32 GB

     Initial potential from superposition of free atoms

     starting charge  366.99388, renormalised to  367.00000

     negative rho (up, down):  1.244E-02 0.000E+00


     %%%%%%%%%%%%%%%%%%%%%%%%%%%%%%%%%%%%%%%%%%%%%%%%%%%%%%%%%%%%%%%%%%%%%%%%
     %                                                                      %
     % You are using vdW-DF, which was implemented by the Thonhauser group. %
     % Please cite the following two papers that made this development      %
     % possible and the two reviews that describe the various versions:     %
     %                                                                      %
     %   T. Thonhauser et al., PRL 115, 136402 (2015).                      %
     %   T. Thonhauser et al., PRB 76, 125112 (2007).                       %
     %   K. Berland et al., Rep. Prog. Phys. 78, 066501 (2015).             %
     %   D.C. Langreth et al., J. Phys.: Condens. Matter 21, 084203 (2009). %
     %                                                                      %
     %                                                                      %
     % If you are calculating the stress with vdW-DF, please also cite:     %
     %                                                                      %
     %   R. Sabatini et al., J. Phys.: Condens. Matter 24, 424209 (2012).   %
     %                                                                      %
     %%%%%%%%%%%%%%%%%%%%%%%%%%%%%%%%%%%%%%%%%%%%%%%%%%%%%%%%%%%%%%%%%%%%%%%%


     Starting wfcs are  329 randomized atomic wfcs
     Checking if some PAW data can be deallocated... 

     total cpu time spent up to now is      315.3 secs

     Self-consistent Calculation

     iteration #  1     ecut=    60.00 Ry     beta= 0.70
     Davidson diagonalization with overlap
     ethr =  1.00E-02,  avg # of iterations =  2.2

     Threshold (ethr) on eigenvalues was too large:
     Diagonalizing with lowered threshold

     Davidson diagonalization with overlap
     ethr =  5.25E-04,  avg # of iterations =  3.8

     negative rho (up, down):  1.497E-02 0.000E+00

     total cpu time spent up to now is     1611.7 secs

     total energy              =  -27797.61000281 Ry
     estimated scf accuracy    <       2.10188953 Ry

     iteration #  2     ecut=    60.00 Ry     beta= 0.70
     Davidson diagonalization with overlap
     ethr =  5.73E-04,  avg # of iterations =  3.0

     negative rho (up, down):  1.324E-02 0.000E+00

     total cpu time spent up to now is     2175.8 secs

     total energy              =  -27797.81152076 Ry
     estimated scf accuracy    <       1.04670043 Ry

     iteration #  3     ecut=    60.00 Ry     beta= 0.70
     Davidson diagonalization with overlap
     ethr =  2.85E-04,  avg # of iterations =  2.0

     negative rho (up, down):  1.036E-02 0.000E+00

     total cpu time spent up to now is     2736.9 secs

     total energy              =  -27797.87430685 Ry
     estimated scf accuracy    <       0.14677378 Ry

     iteration #  4     ecut=    60.00 Ry     beta= 0.70
     Davidson diagonalization with overlap
     c_bands:  1 eigenvalues not converged
     c_bands:  1 eigenvalues not converged
     c_bands:  1 eigenvalues not converged
     ethr =  4.00E-05,  avg # of iterations = 14.7

     negative rho (up, down):  7.910E-03 0.000E+00

     total cpu time spent up to now is     3703.0 secs

     total energy              =  -27797.92685511 Ry
     estimated scf accuracy    <       0.08667214 Ry

     iteration #  5     ecut=    60.00 Ry     beta= 0.70
     Davidson diagonalization with overlap
     ethr =  2.36E-05,  avg # of iterations =  5.0

     negative rho (up, down):  6.462E-03 0.000E+00

     total cpu time spent up to now is     4288.1 secs

     total energy              =  -27797.93078891 Ry
     estimated scf accuracy    <       0.03047870 Ry

     iteration #  6     ecut=    60.00 Ry     beta= 0.70
     Davidson diagonalization with overlap
     ethr =  8.30E-06,  avg # of iterations =  5.5

     negative rho (up, down):  5.245E-03 0.000E+00

     total cpu time spent up to now is     4876.0 secs

     total energy              =  -27797.93200410 Ry
     estimated scf accuracy    <       0.01456895 Ry

     iteration #  7     ecut=    60.00 Ry     beta= 0.70
     Davidson diagonalization with overlap
     ethr =  3.97E-06,  avg # of iterations =  6.8

     negative rho (up, down):  4.787E-03 0.000E+00

     total cpu time spent up to now is     5471.6 secs

     total energy              =  -27797.93244199 Ry
     estimated scf accuracy    <       0.00470121 Ry

     iteration #  8     ecut=    60.00 Ry     beta= 0.70
     Davidson diagonalization with overlap
     ethr =  1.28E-06,  avg # of iterations =  5.7

     negative rho (up, down):  4.783E-03 0.000E+00

     total cpu time spent up to now is     6095.3 secs

     total energy              =  -27797.93292178 Ry
     estimated scf accuracy    <       0.00244350 Ry

     iteration #  9     ecut=    60.00 Ry     beta= 0.70
     Davidson diagonalization with overlap
     ethr =  6.66E-07,  avg # of iterations =  2.1

     negative rho (up, down):  5.429E-03 0.000E+00

     total cpu time spent up to now is     6659.9 secs

     total energy              =  -27797.93303474 Ry
     estimated scf accuracy    <       0.00134331 Ry

     iteration # 10     ecut=    60.00 Ry     beta= 0.70
     Davidson diagonalization with overlap
     c_bands:  2 eigenvalues not converged
     c_bands:  2 eigenvalues not converged
     c_bands:  2 eigenvalues not converged
     ethr =  3.66E-07,  avg # of iterations =  8.7

     negative rho (up, down):  6.291E-03 0.000E+00

     total cpu time spent up to now is     7325.1 secs

     total energy              =  -27797.93317351 Ry
     estimated scf accuracy    <       0.00058793 Ry

     iteration # 11     ecut=    60.00 Ry     beta= 0.70
     Davidson diagonalization with overlap
     ethr =  1.60E-07,  avg # of iterations =  3.9

     negative rho (up, down):  7.433E-03 0.000E+00

     total cpu time spent up to now is     7920.8 secs

     total energy              =  -27797.93323205 Ry
     estimated scf accuracy    <       0.00031389 Ry

     iteration # 12     ecut=    60.00 Ry     beta= 0.70
     Davidson diagonalization with overlap
     ethr =  8.55E-08,  avg # of iterations =  2.0

     negative rho (up, down):  8.962E-03 0.000E+00

     total cpu time spent up to now is     8510.6 secs

     total energy              =  -27797.93327687 Ry
     estimated scf accuracy    <       0.00015735 Ry

     iteration # 13     ecut=    60.00 Ry     beta= 0.70
     Davidson diagonalization with overlap
     ethr =  4.29E-08,  avg # of iterations =  2.0

     negative rho (up, down):  1.018E-02 0.000E+00

     total cpu time spent up to now is     9091.5 secs

     total energy              =  -27797.93330203 Ry
     estimated scf accuracy    <       0.00007611 Ry

     iteration # 14     ecut=    60.00 Ry     beta= 0.70
     Davidson diagonalization with overlap
     ethr =  2.07E-08,  avg # of iterations =  2.5

     negative rho (up, down):  1.166E-02 0.000E+00

     total cpu time spent up to now is     9667.8 secs

     total energy              =  -27797.93331286 Ry
     estimated scf accuracy    <       0.00005147 Ry

     iteration # 15     ecut=    60.00 Ry     beta= 0.70
     Davidson diagonalization with overlap
     ethr =  1.40E-08,  avg # of iterations =  2.0

     negative rho (up, down):  1.267E-02 0.000E+00

     total cpu time spent up to now is    10224.5 secs

     total energy              =  -27797.93331312 Ry
     estimated scf accuracy    <       0.00001603 Ry

     iteration # 16     ecut=    60.00 Ry     beta= 0.70
     Davidson diagonalization with overlap
     ethr =  4.37E-09,  avg # of iterations =  4.0

     negative rho (up, down):  1.302E-02 0.000E+00

     total cpu time spent up to now is    10996.8 secs

     total energy              =  -27797.93331695 Ry
     estimated scf accuracy    <       0.00000639 Ry

     iteration # 17     ecut=    60.00 Ry     beta= 0.70
     Davidson diagonalization with overlap
     ethr =  1.74E-09,  avg # of iterations =  3.2

     negative rho (up, down):  1.318E-02 0.000E+00

     total cpu time spent up to now is    11662.7 secs

     total energy              =  -27797.93331779 Ry
     estimated scf accuracy    <       0.00000469 Ry

     iteration # 18     ecut=    60.00 Ry     beta= 0.70
     Davidson diagonalization with overlap
     ethr =  1.28E-09,  avg # of iterations =  1.8

     negative rho (up, down):  1.312E-02 0.000E+00

     total cpu time spent up to now is    12217.2 secs

     total energy              =  -27797.93331840 Ry
     estimated scf accuracy    <       0.00000100 Ry

     iteration # 19     ecut=    60.00 Ry     beta= 0.70
     Davidson diagonalization with overlap
     ethr =  2.73E-10,  avg # of iterations =  5.2

     negative rho (up, down):  1.293E-02 0.000E+00

     total cpu time spent up to now is    13081.5 secs

     End of self-consistent calculation

          k = 0.0000 0.0000 0.0000 ( 86811 PWs)   bands (ev):

   -18.2291  -6.8852  -6.4863  -5.4189  -4.4289  -4.4259  -4.4089  -4.3757
    -4.3755  -4.3752  -4.3606  -4.2875  -3.9477  -3.9434  -3.8434  -3.8430
    -3.8127  -3.7633  -3.5798  -3.5779  -3.3802  -3.3797  -3.3396  -3.2982
    -3.2010  -3.2005  -3.1576  -3.1570  -3.1224  -3.0693  -3.0226  -3.0165
    -2.9383  -2.9372  -2.9193  -2.9034  -2.9033  -2.8916  -2.8581  -2.8572
    -2.8564  -2.7725  -2.5564  -2.5299  -2.3795  -2.3005  -2.2999  -2.2669
    -2.2451  -2.2449  -2.2019  -2.1984  -2.1901  -2.1259  -2.0431  -2.0420
    -1.9576  -1.9556  -1.5359  -1.5356  -1.5082  -1.4715  -1.4703  -1.4124
    -1.3871  -1.3330  -1.3318  -1.2908  -1.2907  -1.2726  -1.2596  -1.2466
    -1.2441  -1.2428  -1.2188  -1.1917  -1.1840  -1.1831  -1.1829  -1.1810
    -1.0709  -1.0705  -1.0687  -1.0406  -1.0398  -1.0253  -0.9007  -0.8753
    -0.8741  -0.8733  -0.8591  -0.8581  -0.7970  -0.7967  -0.7138  -0.7060
    -0.7055  -0.6120  -0.6116  -0.5745  -0.5605  -0.5603  -0.5288  -0.5275
    -0.4527  -0.4522  -0.4321  -0.4057  -0.3982  -0.3953  -0.2855   0.0104
     0.0104   0.0191   0.0610   0.0630   0.0783   0.1035   0.1042   0.1953
     0.2137   0.2195   0.2348   0.2355   0.2763   0.3428   0.3438   0.4076
     0.4349   0.4782   0.4902   0.5551   0.5552   0.5705   0.5775   0.5781
     0.7511   0.8166   0.8237   0.8239   0.8682   0.8698   0.8853   0.8861
     0.9664   0.9919   1.0009   1.0048   1.0865   1.0872   1.0930   1.1177
     1.2042   1.2071   1.2506   1.2511   1.2731   1.2855   1.2861   1.2972
     1.3146   1.3147   1.3228   1.4175   1.4184   1.4187   1.4259   1.4274
     1.4856   1.5032   1.5040   1.5182   1.5198   1.5563   1.5655   1.5689
     1.5705   1.6403   1.6405   1.6409   1.6556   1.6671   1.6683   1.7183
     1.7191   1.7602   1.7607   1.7779   1.7849   1.8209   1.8242   1.9999
     2.0017   2.0627   2.1035   2.1041   2.1047   2.1481   2.1502   2.2123
     2.9195   2.9748   2.9755   2.9788   3.1974   3.2036   3.7364   5.3107
     5.3130   5.3148   5.4380   5.4453   5.5705   6.4062   6.8146   6.8858
     6.8871   6.8957   6.9331   6.9332   6.9571

          k = 0.0000 0.2309 0.0000 ( 86820 PWs)   bands (ev):

   -18.2291  -6.7734  -6.4373  -5.2929  -4.8998  -4.5237  -4.4972  -4.2489
    -4.2268  -4.1834  -4.1659  -4.1380  -3.9854  -3.9249  -3.8882  -3.7747
    -3.7632  -3.7210  -3.5460  -3.4952  -3.4375  -3.3324  -3.3139  -3.3047
    -3.2342  -3.2144  -3.1744  -3.1669  -3.1510  -3.0931  -3.0787  -3.0597
    -2.9864  -2.9807  -2.9296  -2.9233  -2.8318  -2.8015  -2.7361  -2.7209
    -2.6752  -2.6401  -2.5870  -2.5298  -2.4599  -2.4018  -2.3570  -2.3505
    -2.3036  -2.2809  -2.2647  -2.1640  -2.1014  -2.0552  -2.0318  -2.0045
    -1.9584  -1.9487  -1.7616  -1.6730  -1.6477  -1.6134  -1.5944  -1.5401
    -1.5132  -1.5039  -1.4661  -1.4400  -1.4374  -1.3879  -1.3496  -1.3206
    -1.2849  -1.2702  -1.2499  -1.2013  -1.1771  -1.1634  -1.1053  -1.0970
    -1.0965  -1.0551  -1.0022  -0.9997  -0.9881  -0.9794  -0.9246  -0.9157
    -0.8856  -0.8702  -0.8421  -0.8094  -0.7902  -0.7553  -0.7497  -0.7089
    -0.7056  -0.6763  -0.6599  -0.6225  -0.6096  -0.5822  -0.5803  -0.5176
    -0.4940  -0.4675  -0.4390  -0.4006  -0.3823  -0.3712  -0.3676  -0.3146
    -0.3086  -0.2751  -0.2369  -0.1294  -0.0263   0.0333   0.0458   0.0602
     0.1143   0.1209   0.1350   0.1774   0.2029   0.2758   0.3294   0.3887
     0.4355   0.4426   0.4567   0.4822   0.4857   0.4887   0.5711   0.5966
     0.6625   0.6831   0.6868   0.7086   0.7295   0.8116   0.8804   0.8965
     0.9217   0.9264   0.9394   0.9854   1.0209   1.0394   1.0888   1.0945
     1.1053   1.1568   1.1846   1.1912   1.2073   1.2468   1.2904   1.3049
     1.3451   1.3670   1.4051   1.4760   1.4819   1.5026   1.5212   1.5449
     1.5720   1.6095   1.6255   1.6714   1.6728   1.7015   1.7295   1.7345
     1.7486   1.7535   1.7670   1.7906   1.8320   1.8343   1.9132   1.9580
     1.9842   2.0072   2.0219   2.0325   2.0654   2.0671   2.1006   2.1223
     2.1394   2.2160   2.2354   2.2526   2.3775   2.3786   2.4109   2.5476
     2.6661   2.9779   3.0869   3.5773   3.6311   3.6658   4.1664   4.6666
     5.1084   5.1474   5.7154   5.7520   5.9270   5.9537   6.1989   6.5353
     6.6998   6.7625   6.9095   6.9553   7.0903

          k = 0.0000 0.4619 0.0000 ( 86814 PWs)   bands (ev):

   -18.2291  -6.6027  -6.1731  -5.5855  -4.9263  -4.5600  -4.5362  -4.3983
    -4.1582  -4.0219  -3.8932  -3.8667  -3.8460  -3.8098  -3.7538  -3.6468
    -3.6092  -3.5952  -3.5694  -3.4617  -3.4393  -3.4364  -3.4141  -3.3888
    -3.3587  -3.2874  -3.2557  -3.2370  -3.2166  -3.1604  -2.9880  -2.9839
    -2.9575  -2.9449  -2.8984  -2.8227  -2.8106  -2.7362  -2.7056  -2.6952
    -2.6575  -2.5925  -2.5658  -2.4498  -2.4245  -2.3780  -2.3199  -2.3072
    -2.2915  -2.2821  -2.2396  -2.2064  -2.1962  -2.1618  -2.1209  -2.0215
    -2.0148  -1.9712  -1.9687  -1.8598  -1.8222  -1.7987  -1.7915  -1.7770
    -1.6415  -1.5879  -1.5851  -1.5679  -1.5365  -1.4583  -1.4379  -1.4325
    -1.4103  -1.3128  -1.3086  -1.2467  -1.2186  -1.1970  -1.1756  -1.1738
    -1.1397  -1.0988  -1.0915  -1.0877  -1.0571  -1.0531  -1.0350  -1.0236
    -0.9890  -0.9249  -0.9229  -0.8971  -0.8789  -0.8472  -0.8273  -0.8084
    -0.7480  -0.7374  -0.6803  -0.6745  -0.6100  -0.5981  -0.5835  -0.5527
    -0.5234  -0.5148  -0.4815  -0.4117  -0.4093  -0.3406  -0.3006  -0.2958
    -0.2068  -0.1598  -0.1169  -0.1151  -0.0438  -0.0136   0.0203   0.0309
     0.0395   0.0712   0.0941   0.1223   0.1327   0.1473   0.1741   0.1808
     0.2091   0.2441   0.2766   0.3068   0.3546   0.3604   0.3916   0.4767
     0.4943   0.5809   0.5832   0.6535   0.7138   0.7336   0.7855   0.8354
     0.8876   0.9020   0.9451   0.9488   0.9690   1.0010   1.0089   1.0541
     1.0857   1.1414   1.1436   1.1887   1.2002   1.2279   1.2556   1.2645
     1.3176   1.4131   1.4429   1.4788   1.5112   1.5234   1.5757   1.5838
     1.6321   1.6471   1.6755   1.7043   1.7592   1.7832   1.7951   1.8316
     1.8760   1.8837   1.9720   1.9722   1.9818   1.9835   2.0232   2.0257
     2.0501   2.1066   2.1989   2.2263   2.2437   2.2490   2.3111   2.3357
     2.4049   2.4783   2.8845   2.9820   3.0239   3.2250   3.2893   3.3444
     3.6669   3.7950   3.9522   4.0673   4.4945   4.5235   4.5801   4.6738
     4.7671   4.9091   4.9956   5.1416   5.1886   5.3451   5.7901   5.8484
     6.3380   6.4258   6.7653   6.8680   7.0216

          k = 0.2000-0.1155 0.0000 ( 86820 PWs)   bands (ev):

   -18.2291  -6.7734  -6.4373  -5.2929  -4.8998  -4.5238  -4.4972  -4.2489
    -4.2268  -4.1834  -4.1660  -4.1379  -3.9853  -3.9249  -3.8884  -3.7747
    -3.7631  -3.7211  -3.5460  -3.4953  -3.4376  -3.3324  -3.3139  -3.3047
    -3.2341  -3.2144  -3.1743  -3.1669  -3.1510  -3.0931  -3.0787  -3.0597
    -2.9863  -2.9806  -2.9295  -2.9233  -2.8317  -2.8016  -2.7359  -2.7210
    -2.6753  -2.6400  -2.5865  -2.5304  -2.4599  -2.4018  -2.3570  -2.3506
    -2.3035  -2.2810  -2.2647  -2.1639  -2.1014  -2.0551  -2.0318  -2.0046
    -1.9583  -1.9488  -1.7616  -1.6730  -1.6477  -1.6135  -1.5944  -1.5401
    -1.5131  -1.5039  -1.4661  -1.4400  -1.4374  -1.3879  -1.3496  -1.3206
    -1.2848  -1.2701  -1.2500  -1.2013  -1.1771  -1.1633  -1.1053  -1.0970
    -1.0965  -1.0551  -1.0021  -0.9997  -0.9881  -0.9794  -0.9246  -0.9156
    -0.8855  -0.8702  -0.8421  -0.8095  -0.7902  -0.7553  -0.7497  -0.7089
    -0.7057  -0.6763  -0.6599  -0.6225  -0.6096  -0.5822  -0.5803  -0.5175
    -0.4941  -0.4676  -0.4391  -0.4005  -0.3823  -0.3711  -0.3678  -0.3146
    -0.3086  -0.2755  -0.2367  -0.1293  -0.0262   0.0335   0.0458   0.0601
     0.1144   0.1209   0.1350   0.1774   0.2027   0.2756   0.3293   0.3888
     0.4355   0.4426   0.4567   0.4822   0.4856   0.4887   0.5710   0.5966
     0.6625   0.6831   0.6868   0.7086   0.7295   0.8118   0.8804   0.8965
     0.9218   0.9263   0.9394   0.9854   1.0211   1.0393   1.0888   1.0944
     1.1053   1.1568   1.1845   1.1913   1.2073   1.2467   1.2904   1.3050
     1.3451   1.3671   1.4051   1.4761   1.4820   1.5026   1.5213   1.5449
     1.5721   1.6095   1.6255   1.6714   1.6728   1.7015   1.7295   1.7345
     1.7486   1.7535   1.7670   1.7908   1.8322   1.8343   1.9133   1.9580
     1.9843   2.0073   2.0219   2.0325   2.0655   2.0669   2.1006   2.1221
     2.1395   2.2160   2.2354   2.2527   2.3775   2.3786   2.4108   2.5474
     2.6661   2.9781   3.0868   3.5773   3.6312   3.6658   4.1662   4.6667
     5.1086   5.1471   5.7154   5.7520   5.9271   5.9536   6.1989   6.5351
     6.6998   6.7625   6.9094   6.9553   7.0904

          k = 0.2000 0.1155 0.0000 ( 86820 PWs)   bands (ev):

   -18.2291  -6.7733  -6.4373  -5.2931  -4.9004  -4.5224  -4.4978  -4.2494
    -4.2270  -4.1832  -4.1645  -4.1391  -3.9864  -3.9248  -3.8843  -3.7744
    -3.7650  -3.7209  -3.5478  -3.4931  -3.4366  -3.3325  -3.3140  -3.3052
    -3.2342  -3.2137  -3.1764  -3.1660  -3.1507  -3.0922  -3.0773  -3.0615
    -2.9875  -2.9810  -2.9299  -2.9228  -2.8337  -2.7993  -2.7419  -2.7193
    -2.6753  -2.6428  -2.5946  -2.5204  -2.4599  -2.4019  -2.3556  -2.3496
    -2.3048  -2.2788  -2.2651  -2.1650  -2.1025  -2.0557  -2.0320  -2.0022
    -1.9597  -1.9487  -1.7617  -1.6728  -1.6474  -1.6131  -1.5939  -1.5411
    -1.5135  -1.5035  -1.4668  -1.4399  -1.4368  -1.3874  -1.3495  -1.3207
    -1.2853  -1.2715  -1.2495  -1.2009  -1.1769  -1.1635  -1.1058  -1.0971
    -1.0964  -1.0551  -1.0029  -1.0004  -0.9877  -0.9798  -0.9245  -0.9169
    -0.8859  -0.8693  -0.8413  -0.8087  -0.7900  -0.7551  -0.7505  -0.7088
    -0.7052  -0.6760  -0.6598  -0.6226  -0.6098  -0.5818  -0.5808  -0.5182
    -0.4919  -0.4660  -0.4380  -0.4018  -0.3825  -0.3721  -0.3660  -0.3143
    -0.3087  -0.2663  -0.2434  -0.1315  -0.0267   0.0303   0.0459   0.0613
     0.1132   0.1206   0.1357   0.1783   0.2068   0.2787   0.3323   0.3877
     0.4367   0.4426   0.4559   0.4827   0.4857   0.4890   0.5738   0.5975
     0.6623   0.6838   0.6870   0.7088   0.7287   0.8065   0.8816   0.8959
     0.9212   0.9276   0.9397   0.9850   1.0176   1.0414   1.0886   1.0951
     1.1053   1.1569   1.1862   1.1900   1.2068   1.2484   1.2905   1.3028
     1.3461   1.3658   1.4060   1.4763   1.4812   1.5026   1.5200   1.5447
     1.5706   1.6097   1.6254   1.6723   1.6723   1.7015   1.7293   1.7343
     1.7475   1.7535   1.7670   1.7874   1.8313   1.8320   1.9112   1.9587
     1.9829   2.0069   2.0225   2.0323   2.0645   2.0715   2.1002   2.1248
     2.1379   2.2155   2.2355   2.2508   2.3778   2.3785   2.4113   2.5512
     2.6661   2.9747   3.0873   3.5776   3.6297   3.6654   4.1707   4.6653
     5.1040   5.1519   5.7153   5.7520   5.9240   5.9555   6.1991   6.5375
     6.6993   6.7639   6.9102   6.9539   7.0902

          k = 0.2000 0.3464 0.0000 ( 86850 PWs)   bands (ev):

   -18.2291  -6.6321  -6.2793  -5.1645  -5.1438  -5.0203  -4.1658  -4.1176
    -4.0629  -4.0542  -4.0211  -3.9863  -3.9696  -3.9021  -3.8856  -3.8674
    -3.6310  -3.5273  -3.4866  -3.4732  -3.4444  -3.4357  -3.3853  -3.3140
    -3.2569  -3.2349  -3.2257  -3.1616  -3.1053  -3.0909  -3.0865  -3.0563
    -3.0019  -2.9942  -2.9565  -2.9375  -2.8658  -2.8316  -2.7648  -2.6927
    -2.5817  -2.5109  -2.4816  -2.4458  -2.4335  -2.4056  -2.3744  -2.3499
    -2.3094  -2.2702  -2.2092  -2.1929  -2.1463  -2.0806  -2.0657  -2.0178
    -1.9988  -1.9850  -1.9332  -1.9013  -1.7510  -1.7355  -1.7068  -1.6696
    -1.6380  -1.6094  -1.5867  -1.5790  -1.5356  -1.5084  -1.3840  -1.3694
    -1.3488  -1.3293  -1.3084  -1.2882  -1.2490  -1.2150  -1.1998  -1.1515
    -1.0803  -1.0618  -1.0516  -1.0328  -1.0132  -1.0065  -0.9947  -0.9638
    -0.9450  -0.9214  -0.9071  -0.8566  -0.8094  -0.7823  -0.7770  -0.7290
    -0.7125  -0.6971  -0.6819  -0.6436  -0.6325  -0.6165  -0.5989  -0.5940
    -0.5795  -0.5288  -0.5253  -0.4701  -0.4572  -0.3941  -0.3543  -0.3421
    -0.3009  -0.2716  -0.2330  -0.2067  -0.1507  -0.0660  -0.0538   0.0636
     0.0693   0.0947   0.1163   0.1526   0.1789   0.1937   0.2100   0.2187
     0.2570   0.2711   0.3376   0.3619   0.4399   0.4675   0.4988   0.5333
     0.5716   0.5946   0.6513   0.6765   0.7355   0.7458   0.7834   0.8124
     0.8283   0.8808   0.9360   0.9576   0.9987   1.0174   1.0429   1.0554
     1.0762   1.0772   1.1023   1.1201   1.1262   1.1538   1.2336   1.2684
     1.3563   1.4264   1.4650   1.5132   1.5627   1.6184   1.6315   1.6479
     1.7010   1.7303   1.7635   1.7815   1.7861   1.8037   1.8257   1.8347
     1.8467   1.8828   1.8929   1.9259   1.9477   1.9951   2.0242   2.0454
     2.0541   2.0737   2.1332   2.1545   2.2466   2.2740   2.3195   2.3514
     2.3848   2.4511   2.4860   2.5795   2.6719   2.9926   3.0735   3.1500
     3.5565   3.6065   3.7322   3.8384   4.3257   4.3938   4.4314   4.5457
     4.5799   4.9004   5.2732   5.7050   5.8038   5.8867   5.9722   6.3820
     6.4179   6.4677   6.5244   6.5966   6.7011

          k = 0.2000-0.5774 0.0000 ( 86820 PWs)   bands (ev):

   -18.2290  -6.5728  -5.8399  -5.7848  -5.2264  -4.6442  -4.5232  -4.1199
    -4.0536  -3.9642  -3.9078  -3.8024  -3.7787  -3.7297  -3.6879  -3.6560
    -3.5833  -3.5521  -3.5211  -3.5115  -3.5022  -3.4515  -3.4300  -3.3523
    -3.3246  -3.3155  -3.3040  -3.2994  -3.1606  -3.1326  -3.0609  -3.0057
    -2.9947  -2.9671  -2.9282  -2.8628  -2.8497  -2.8166  -2.7280  -2.6880
    -2.6815  -2.6430  -2.5076  -2.4817  -2.4325  -2.3700  -2.3329  -2.2863
    -2.2689  -2.1875  -2.1595  -2.1168  -2.0919  -2.0735  -2.0410  -1.9940
    -1.9813  -1.9152  -1.8992  -1.8845  -1.8634  -1.8566  -1.8333  -1.8022
    -1.7786  -1.7482  -1.6578  -1.6253  -1.5754  -1.5711  -1.5038  -1.4357
    -1.4124  -1.4053  -1.3924  -1.3688  -1.3236  -1.2995  -1.2534  -1.2280
    -1.1793  -1.1436  -1.1364  -1.1230  -1.0463  -1.0117  -0.9875  -0.9828
    -0.9628  -0.8882  -0.8840  -0.8462  -0.8064  -0.7810  -0.7597  -0.7446
    -0.7161  -0.7076  -0.6923  -0.6753  -0.6411  -0.6164  -0.5995  -0.5882
    -0.5752  -0.5579  -0.5454  -0.5316  -0.4985  -0.4756  -0.4663  -0.3263
    -0.2761  -0.2517  -0.2373  -0.1437  -0.1272  -0.0648  -0.0394  -0.0069
     0.0168   0.0526   0.0689   0.0771   0.1044   0.1320   0.1634   0.1965
     0.2478   0.2713   0.3195   0.3366   0.3527   0.3923   0.4404   0.5364
     0.5889   0.5934   0.6517   0.6767   0.7047   0.7159   0.7550   0.7707
     0.7926   0.7978   0.8518   0.9025   0.9203   0.9366   0.9848   0.9997
     1.0205   1.0552   1.0945   1.1153   1.2058   1.2267   1.3002   1.3440
     1.3896   1.4631   1.4709   1.5094   1.5538   1.5892   1.5925   1.6646
     1.7305   1.7564   1.7650   1.8091   1.8254   1.8317   1.8605   1.8886
     1.9167   1.9609   1.9799   1.9872   2.0197   2.0443   2.0474   2.0993
     2.1301   2.2158   2.2322   2.2430   2.2715   2.2871   2.3138   2.3380
     2.4371   2.5451   2.6607   3.3961   3.4046   3.6417   3.6558   3.7325
     3.8038   3.8706   3.9534   4.3218   4.4112   4.4506   4.8642   4.9020
     4.9902   5.0624   5.1306   5.2595   5.3441   5.4191   5.4561   5.7806
     5.8972   5.9962   6.3223   6.4927   6.5198

          k = 0.2000-0.3464 0.0000 ( 86850 PWs)   bands (ev):

   -18.2291  -6.6324  -6.2791  -5.1642  -5.1435  -5.0202  -4.1638  -4.1215
    -4.0626  -4.0544  -4.0213  -3.9862  -3.9696  -3.9016  -3.8861  -3.8669
    -3.6354  -3.5247  -3.4864  -3.4731  -3.4444  -3.4366  -3.3870  -3.3150
    -3.2566  -3.2342  -3.2255  -3.1617  -3.1052  -3.0912  -3.0864  -3.0564
    -3.0007  -2.9953  -2.9548  -2.9390  -2.8660  -2.8323  -2.7505  -2.6907
    -2.5830  -2.5106  -2.4813  -2.4462  -2.4324  -2.4055  -2.3746  -2.3492
    -2.3110  -2.2748  -2.2087  -2.1923  -2.1458  -2.0829  -2.0661  -2.0167
    -2.0008  -1.9852  -1.9329  -1.9018  -1.7511  -1.7360  -1.7064  -1.6692
    -1.6378  -1.6089  -1.5868  -1.5787  -1.5355  -1.5086  -1.3839  -1.3693
    -1.3483  -1.3282  -1.3102  -1.2881  -1.2497  -1.2148  -1.1988  -1.1513
    -1.0780  -1.0609  -1.0522  -1.0334  -1.0128  -1.0059  -0.9951  -0.9626
    -0.9457  -0.9225  -0.9077  -0.8572  -0.8093  -0.7826  -0.7775  -0.7297
    -0.7147  -0.6957  -0.6825  -0.6434  -0.6329  -0.6184  -0.5992  -0.5945
    -0.5807  -0.5290  -0.5250  -0.4701  -0.4564  -0.3940  -0.3583  -0.3427
    -0.3006  -0.2721  -0.2358  -0.2053  -0.1485  -0.0663  -0.0544   0.0637
     0.0693   0.0947   0.1162   0.1532   0.1789   0.1929   0.2111   0.2183
     0.2571   0.2699   0.3371   0.3623   0.4408   0.4677   0.4980   0.5331
     0.5688   0.5951   0.6512   0.6782   0.7357   0.7466   0.7828   0.8127
     0.8278   0.8804   0.9337   0.9569   1.0001   1.0180   1.0424   1.0561
     1.0756   1.0768   1.1024   1.1203   1.1256   1.1526   1.2326   1.2689
     1.3584   1.4267   1.4667   1.5132   1.5640   1.6192   1.6308   1.6468
     1.7034   1.7312   1.7637   1.7821   1.7864   1.8032   1.8255   1.8346
     1.8471   1.8835   1.8929   1.9254   1.9473   1.9958   2.0247   2.0452
     2.0542   2.0758   2.1286   2.1511   2.2473   2.2750   2.3204   2.3517
     2.3848   2.4500   2.4855   2.5824   2.6774   2.9931   3.0741   3.1492
     3.5573   3.6061   3.7368   3.8340   4.3258   4.3926   4.4328   4.5446
     4.5804   4.8994   5.2716   5.7045   5.8037   5.8863   5.9727   6.3803
     6.4167   6.4706   6.5236   6.5959   6.6981

          k = 0.4000-0.2309 0.0000 ( 86814 PWs)   bands (ev):

   -18.2291  -6.6027  -6.1731  -5.5854  -4.9262  -4.5601  -4.5361  -4.3983
    -4.1582  -4.0219  -3.8932  -3.8670  -3.8460  -3.8098  -3.7539  -3.6467
    -3.6092  -3.5952  -3.5694  -3.4617  -3.4393  -3.4364  -3.4141  -3.3889
    -3.3587  -3.2874  -3.2557  -3.2370  -3.2166  -3.1604  -2.9880  -2.9838
    -2.9575  -2.9449  -2.8983  -2.8228  -2.8100  -2.7361  -2.7055  -2.6950
    -2.6575  -2.5925  -2.5659  -2.4498  -2.4245  -2.3779  -2.3199  -2.3072
    -2.2915  -2.2822  -2.2396  -2.2065  -2.1962  -2.1617  -2.1210  -2.0216
    -2.0147  -1.9713  -1.9689  -1.8598  -1.8223  -1.7986  -1.7916  -1.7770
    -1.6415  -1.5878  -1.5851  -1.5679  -1.5365  -1.4583  -1.4379  -1.4325
    -1.4105  -1.3128  -1.3086  -1.2466  -1.2186  -1.1971  -1.1755  -1.1738
    -1.1396  -1.0988  -1.0914  -1.0877  -1.0571  -1.0531  -1.0349  -1.0236
    -0.9890  -0.9250  -0.9229  -0.8971  -0.8789  -0.8471  -0.8273  -0.8085
    -0.7481  -0.7373  -0.6803  -0.6745  -0.6100  -0.5982  -0.5836  -0.5528
    -0.5234  -0.5147  -0.4815  -0.4118  -0.4094  -0.3406  -0.3006  -0.2960
    -0.2068  -0.1598  -0.1169  -0.1152  -0.0438  -0.0134   0.0203   0.0308
     0.0395   0.0712   0.0940   0.1222   0.1327   0.1473   0.1741   0.1807
     0.2091   0.2442   0.2764   0.3068   0.3546   0.3604   0.3916   0.4767
     0.4943   0.5808   0.5833   0.6535   0.7139   0.7336   0.7855   0.8354
     0.8876   0.9021   0.9451   0.9487   0.9691   1.0010   1.0089   1.0541
     1.0858   1.1413   1.1436   1.1887   1.2002   1.2279   1.2555   1.2645
     1.3176   1.4130   1.4428   1.4788   1.5112   1.5235   1.5758   1.5839
     1.6321   1.6471   1.6756   1.7043   1.7593   1.7832   1.7951   1.8316
     1.8760   1.8838   1.9720   1.9723   1.9818   1.9835   2.0232   2.0257
     2.0501   2.1067   2.1989   2.2262   2.2437   2.2488   2.3113   2.3359
     2.4049   2.4783   2.8845   2.9822   3.0238   3.2250   3.2893   3.3444
     3.6669   3.7949   3.9522   4.0672   4.4945   4.5235   4.5801   4.6738
     4.7671   4.9091   4.9958   5.1415   5.1887   5.3448   5.7900   5.8484
     6.3380   6.4257   6.7653   6.8681   7.0215

          k = 0.4000-0.0000 0.0000 ( 86850 PWs)   bands (ev):

   -18.2291  -6.6321  -6.2793  -5.1645  -5.1438  -5.0203  -4.1657  -4.1178
    -4.0629  -4.0542  -4.0211  -3.9863  -3.9696  -3.9021  -3.8856  -3.8674
    -3.6312  -3.5272  -3.4866  -3.4732  -3.4444  -3.4357  -3.3853  -3.3140
    -3.2569  -3.2348  -3.2257  -3.1616  -3.1053  -3.0909  -3.0865  -3.0563
    -3.0019  -2.9943  -2.9565  -2.9376  -2.8658  -2.8316  -2.7641  -2.6926
    -2.5817  -2.5109  -2.4816  -2.4459  -2.4335  -2.4056  -2.3744  -2.3498
    -2.3095  -2.2705  -2.2091  -2.1929  -2.1463  -2.0807  -2.0658  -2.0177
    -1.9989  -1.9850  -1.9332  -1.9013  -1.7510  -1.7356  -1.7067  -1.6696
    -1.6380  -1.6094  -1.5867  -1.5790  -1.5356  -1.5084  -1.3840  -1.3694
    -1.3488  -1.3293  -1.3085  -1.2882  -1.2491  -1.2150  -1.1997  -1.1514
    -1.0802  -1.0618  -1.0516  -1.0329  -1.0132  -1.0065  -0.9947  -0.9638
    -0.9450  -0.9214  -0.9071  -0.8567  -0.8093  -0.7823  -0.7770  -0.7291
    -0.7126  -0.6971  -0.6820  -0.6436  -0.6325  -0.6166  -0.5989  -0.5940
    -0.5796  -0.5289  -0.5252  -0.4701  -0.4572  -0.3941  -0.3545  -0.3421
    -0.3009  -0.2716  -0.2331  -0.2066  -0.1506  -0.0660  -0.0538   0.0636
     0.0693   0.0947   0.1163   0.1526   0.1789   0.1936   0.2101   0.2187
     0.2570   0.2710   0.3375   0.3619   0.4399   0.4675   0.4988   0.5333
     0.5714   0.5946   0.6513   0.6766   0.7355   0.7458   0.7833   0.8124
     0.8283   0.8808   0.9359   0.9576   0.9988   1.0174   1.0429   1.0554
     1.0762   1.0771   1.1023   1.1201   1.1262   1.1537   1.2335   1.2684
     1.3564   1.4265   1.4651   1.5132   1.5628   1.6184   1.6315   1.6478
     1.7011   1.7304   1.7635   1.7815   1.7861   1.8037   1.8257   1.8347
     1.8467   1.8828   1.8929   1.9259   1.9477   1.9951   2.0242   2.0454
     2.0541   2.0738   2.1330   2.1544   2.2466   2.2740   2.3195   2.3514
     2.3848   2.4511   2.4859   2.5797   2.6722   2.9926   3.0736   3.1499
     3.5566   3.6064   3.7324   3.8381   4.3257   4.3937   4.4314   4.5456
     4.5799   4.9004   5.2732   5.7050   5.8038   5.8867   5.9722   6.3819
     6.4179   6.4678   6.5244   6.5965   6.7009

          k = 0.4000 0.2309 0.0000 ( 86814 PWs)   bands (ev):

   -18.2291  -6.6022  -6.1733  -5.5859  -4.9269  -4.5586  -4.5370  -4.3988
    -4.1581  -4.0219  -3.8936  -3.8598  -3.8465  -3.8110  -3.7518  -3.6488
    -3.6092  -3.5959  -3.5694  -3.4614  -3.4377  -3.4369  -3.4136  -3.3858
    -3.3591  -3.2880  -3.2546  -3.2363  -3.2160  -3.1608  -2.9881  -2.9862
    -2.9574  -2.9460  -2.9016  -2.8236  -2.8197  -2.7380  -2.7058  -2.6990
    -2.6573  -2.5926  -2.5642  -2.4494  -2.4246  -2.3796  -2.3199  -2.3085
    -2.2892  -2.2825  -2.2385  -2.2037  -2.1970  -2.1637  -2.1203  -2.0208
    -2.0159  -1.9701  -1.9649  -1.8595  -1.8221  -1.7995  -1.7896  -1.7773
    -1.6410  -1.5880  -1.5861  -1.5696  -1.5365  -1.4580  -1.4373  -1.4326
    -1.4080  -1.3118  -1.3081  -1.2470  -1.2184  -1.1961  -1.1767  -1.1744
    -1.1408  -1.0991  -1.0922  -1.0882  -1.0574  -1.0531  -1.0357  -1.0236
    -0.9897  -0.9232  -0.9223  -0.8972  -0.8787  -0.8483  -0.8268  -0.8071
    -0.7473  -0.7383  -0.6809  -0.6733  -0.6099  -0.5971  -0.5818  -0.5509
    -0.5246  -0.5163  -0.4815  -0.4109  -0.4086  -0.3407  -0.2989  -0.2933
    -0.2049  -0.1601  -0.1162  -0.1153  -0.0430  -0.0161   0.0208   0.0320
     0.0378   0.0723   0.0952   0.1245   0.1330   0.1469   0.1734   0.1818
     0.2092   0.2433   0.2814   0.3055   0.3556   0.3609   0.3917   0.4758
     0.4944   0.5830   0.5831   0.6543   0.7121   0.7338   0.7849   0.8362
     0.8887   0.9012   0.9460   0.9496   0.9672   1.0027   1.0069   1.0544
     1.0851   1.1422   1.1444   1.1881   1.1996   1.2290   1.2562   1.2641
     1.3158   1.4148   1.4445   1.4792   1.5107   1.5215   1.5740   1.5818
     1.6324   1.6467   1.6732   1.7053   1.7574   1.7832   1.7952   1.8325
     1.8760   1.8826   1.9717   1.9718   1.9818   1.9829   2.0226   2.0254
     2.0503   2.1041   2.1984   2.2294   2.2432   2.2529   2.3087   2.3295
     2.4033   2.4780   2.8831   2.9775   3.0264   3.2244   3.2894   3.3443
     3.6671   3.7964   3.9516   4.0682   4.4947   4.5230   4.5796   4.6742
     4.7668   4.9093   4.9919   5.1440   5.1870   5.3506   5.7913   5.8483
     6.3377   6.4266   6.7649   6.8664   7.0231

          k = 0.4000-0.6928 0.0000 ( 86820 PWs)   bands (ev):

   -18.2290  -6.5724  -5.8402  -5.7852  -5.2260  -4.6457  -4.5227  -4.1172
    -4.0535  -3.9649  -3.9079  -3.8027  -3.7785  -3.7294  -3.6872  -3.6568
    -3.5822  -3.5513  -3.5216  -3.5117  -3.5017  -3.4509  -3.4296  -3.3502
    -3.3246  -3.3142  -3.3034  -3.2998  -3.1615  -3.1325  -3.0612  -3.0060
    -2.9941  -2.9728  -2.9294  -2.8665  -2.8514  -2.8196  -2.7280  -2.6875
    -2.6808  -2.6426  -2.5086  -2.4803  -2.4306  -2.3717  -2.3335  -2.2853
    -2.2712  -2.1884  -2.1581  -2.1191  -2.0918  -2.0730  -2.0400  -1.9945
    -1.9811  -1.9154  -1.8970  -1.8847  -1.8614  -1.8563  -1.8328  -1.8005
    -1.7803  -1.7478  -1.6591  -1.6238  -1.5745  -1.5718  -1.5031  -1.4358
    -1.4130  -1.4048  -1.3937  -1.3689  -1.3234  -1.2993  -1.2546  -1.2273
    -1.1798  -1.1434  -1.1345  -1.1236  -1.0472  -1.0111  -0.9878  -0.9831
    -0.9640  -0.8889  -0.8797  -0.8461  -0.8069  -0.7807  -0.7594  -0.7433
    -0.7164  -0.7073  -0.6927  -0.6754  -0.6402  -0.6167  -0.5995  -0.5880
    -0.5753  -0.5580  -0.5463  -0.5312  -0.4977  -0.4747  -0.4671  -0.3248
    -0.2772  -0.2508  -0.2374  -0.1415  -0.1280  -0.0652  -0.0380  -0.0065
     0.0168   0.0516   0.0690   0.0757   0.1026   0.1324   0.1626   0.1971
     0.2488   0.2711   0.3195   0.3375   0.3533   0.3934   0.4425   0.5352
     0.5882   0.5938   0.6519   0.6766   0.7055   0.7159   0.7548   0.7707
     0.7928   0.7973   0.8558   0.9026   0.9200   0.9376   0.9856   0.9988
     1.0208   1.0551   1.0935   1.1173   1.2070   1.2204   1.3008   1.3438
     1.3912   1.4636   1.4708   1.5046   1.5539   1.5894   1.5915   1.6653
     1.7286   1.7564   1.7654   1.8091   1.8257   1.8320   1.8601   1.8884
     1.9171   1.9605   1.9791   1.9869   2.0196   2.0444   2.0479   2.0985
     2.1279   2.2151   2.2343   2.2425   2.2764   2.2866   2.3201   2.3369
     2.4365   2.5406   2.6530   3.3959   3.4048   3.6437   3.6570   3.7318
     3.8020   3.8706   3.9520   4.3213   4.4109   4.4503   4.8649   4.9016
     4.9907   5.0631   5.1294   5.2605   5.3441   5.4224   5.4553   5.7801
     5.8959   6.0004   6.3210   6.4935   6.5201

          k = 0.4000-0.4619 0.0000 ( 86820 PWs)   bands (ev):

   -18.2290  -6.5728  -5.8399  -5.7848  -5.2264  -4.6441  -4.5232  -4.1200
    -4.0536  -3.9642  -3.9078  -3.8024  -3.7787  -3.7297  -3.6879  -3.6560
    -3.5834  -3.5522  -3.5211  -3.5115  -3.5023  -3.4515  -3.4300  -3.3524
    -3.3246  -3.3156  -3.3040  -3.2994  -3.1605  -3.1326  -3.0609  -3.0057
    -2.9948  -2.9668  -2.9282  -2.8627  -2.8495  -2.8165  -2.7280  -2.6881
    -2.6816  -2.6430  -2.5075  -2.4818  -2.4326  -2.3699  -2.3328  -2.2863
    -2.2688  -2.1875  -2.1596  -2.1166  -2.0919  -2.0735  -2.0410  -1.9940
    -1.9813  -1.9152  -1.8993  -1.8845  -1.8636  -1.8566  -1.8333  -1.8023
    -1.7786  -1.7482  -1.6577  -1.6254  -1.5754  -1.5711  -1.5039  -1.4357
    -1.4124  -1.4054  -1.3924  -1.3688  -1.3235  -1.2995  -1.2534  -1.2280
    -1.1793  -1.1436  -1.1365  -1.1230  -1.0462  -1.0117  -0.9875  -0.9828
    -0.9628  -0.8882  -0.8842  -0.8462  -0.8064  -0.7810  -0.7598  -0.7447
    -0.7161  -0.7076  -0.6922  -0.6753  -0.6412  -0.6163  -0.5995  -0.5882
    -0.5753  -0.5579  -0.5454  -0.5316  -0.4985  -0.4756  -0.4663  -0.3263
    -0.2761  -0.2518  -0.2373  -0.1438  -0.1272  -0.0648  -0.0394  -0.0069
     0.0168   0.0526   0.0689   0.0772   0.1045   0.1320   0.1634   0.1965
     0.2478   0.2713   0.3196   0.3365   0.3527   0.3923   0.4403   0.5365
     0.5889   0.5933   0.6517   0.6767   0.7046   0.7159   0.7550   0.7707
     0.7926   0.7978   0.8516   0.9024   0.9203   0.9366   0.9847   0.9997
     1.0205   1.0552   1.0946   1.1152   1.2057   1.2270   1.3001   1.3440
     1.3895   1.4631   1.4709   1.5097   1.5538   1.5892   1.5926   1.6646
     1.7306   1.7564   1.7650   1.8092   1.8254   1.8317   1.8605   1.8886
     1.9167   1.9610   1.9799   1.9872   2.0197   2.0443   2.0474   2.0993
     2.1302   2.2159   2.2321   2.2430   2.2712   2.2872   2.3136   2.3380
     2.4372   2.5453   2.6611   3.3961   3.4046   3.6416   3.6557   3.7325
     3.8039   3.8706   3.9534   4.3218   4.4112   4.4506   4.8642   4.9020
     4.9902   5.0624   5.1307   5.2594   5.3441   5.4189   5.4561   5.7807
     5.8973   5.9960   6.3223   6.4928   6.5198

     the Fermi energy is     2.0297 ev

!    total energy              =  -27797.93331878 Ry

     total all-electron energy =  -1326793.545630 Ry
     estimated scf accuracy    <       0.00000043 Ry
     smearing contrib. (-TS)   =       0.00185819 Ry
     internal energy E=F+TS    =  -27797.93517697 Ry

     The total energy is F=E-TS. E is the sum of the following terms:
     one-electron contribution =  -25811.16239251 Ry
     hartree contribution      =   13209.08804085 Ry
     xc contribution           =    -898.58222086 Ry
     ewald contribution        =   11186.85176658 Ry
     one-center paw contrib.   =  -25484.13037104 Ry

     convergence has been achieved in  19 iterations

     negative rho (up, down):  1.293E-02 0.000E+00

     Forces acting on atoms (cartesian axes, Ry/au):

     atom    1 type  1   force =    -0.00098549   -0.00055493   -0.00289198
     atom    2 type  1   force =     0.00095201   -0.00054074   -0.00292236
     atom    3 type  1   force =     0.00002844    0.00045284   -0.00510147
     atom    4 type  1   force =    -0.00000083    0.00109669   -0.00291322
     atom    5 type  1   force =     0.00087182    0.00049597   -0.00410153
     atom    6 type  1   force =    -0.00086450    0.00052874   -0.00422195
     atom    7 type  1   force =     0.00038370   -0.00019494   -0.00509263
     atom    8 type  1   force =     0.00002910   -0.00101504   -0.00422121
     atom    9 type  1   force =    -0.00062570   -0.00036600   -0.00537976
     atom   10 type  1   force =     0.00003969    0.00003834    0.00144007
     atom   11 type  1   force =     0.00072917   -0.00193024    0.00162702
     atom   12 type  1   force =    -0.00077144   -0.00222246    0.00188216
     atom   13 type  1   force =    -0.00132504    0.00159629    0.00165668
     atom   14 type  1   force =    -0.00000735   -0.00001456   -0.00072910
     atom   15 type  1   force =     0.00145742    0.00167590    0.00154927
     atom   16 type  1   force =    -0.00231571    0.00044203    0.00189006
     atom   17 type  1   force =     0.00217790    0.00040499    0.00152467
     atom   18 type  1   force =     0.00017700    0.00008428    0.02469020
     atom   19 type  1   force =    -0.00000918    0.00000869    0.00019323
     atom   20 type  1   force =     0.00000802    0.00002598    0.00026289
     atom   21 type  1   force =    -0.00001342   -0.00000553   -0.00000646
     atom   22 type  1   force =    -0.00000791    0.00006281    0.00002632
     atom   23 type  1   force =    -0.00002373   -0.00000909    0.00000126
     atom   24 type  1   force =     0.00001329   -0.00000648   -0.00001339
     atom   25 type  1   force =    -0.00014158   -0.00008871   -0.00006937
     atom   26 type  1   force =    -0.00001436   -0.00001039    0.00020420
     atom   27 type  1   force =     0.00005696   -0.00005362    0.00001622
     atom   28 type  1   force =     0.00021459    0.00012206   -0.00009319
     atom   29 type  1   force =    -0.00012906    0.00006514   -0.00006961
     atom   30 type  1   force =    -0.00005276    0.00002071    0.00037156
     atom   31 type  1   force =    -0.00000349   -0.00012872   -0.00008188
     atom   32 type  1   force =    -0.00012473   -0.00006472    0.00010291
     atom   33 type  1   force =     0.00013217   -0.00005599    0.00012082
     atom   34 type  1   force =    -0.00001994   -0.00006755    0.00035899
     atom   35 type  1   force =     0.00001772    0.00014088    0.00012582
     atom   36 type  1   force =    -0.00005213   -0.00004220    0.00034362
     atom   37 type  2   force =    -0.00059296   -0.00030822    0.01729170
     atom   38 type  3   force =     0.00079231    0.00041780   -0.01777054

     Total force =     0.024837     Total SCF correction =     0.001791

     negative rho (up, down):  1.293E-02 0.000E+00

     negative rho (up, down):  1.293E-02 0.000E+00

     negative rho (up, down):  1.293E-02 0.000E+00

     negative rho (up, down):  1.293E-02 0.000E+00

     negative rho (up, down):  1.293E-02 0.000E+00

     negative rho (up, down):  1.293E-02 0.000E+00

     negative rho (up, down):  1.293E-02 0.000E+00

     negative rho (up, down):  1.293E-02 0.000E+00

     negative rho (up, down):  1.293E-02 0.000E+00

     negative rho (up, down):  1.293E-02 0.000E+00

     negative rho (up, down):  1.293E-02 0.000E+00

     negative rho (up, down):  1.293E-02 0.000E+00

     negative rho (up, down):  1.293E-02 0.000E+00

     negative rho (up, down):  1.293E-02 0.000E+00

     negative rho (up, down):  1.293E-02 0.000E+00

     negative rho (up, down):  1.293E-02 0.000E+00

     negative rho (up, down):  1.293E-02 0.000E+00

     negative rho (up, down):  1.293E-02 0.000E+00

     negative rho (up, down):  1.293E-02 0.000E+00

     negative rho (up, down):  1.293E-02 0.000E+00

     negative rho (up, down):  1.293E-02 0.000E+00

     negative rho (up, down):  1.293E-02 0.000E+00

     negative rho (up, down):  1.293E-02 0.000E+00

     negative rho (up, down):  1.293E-02 0.000E+00

     negative rho (up, down):  1.293E-02 0.000E+00

     negative rho (up, down):  1.293E-02 0.000E+00

     negative rho (up, down):  1.293E-02 0.000E+00

     negative rho (up, down):  1.293E-02 0.000E+00

     negative rho (up, down):  1.293E-02 0.000E+00

     negative rho (up, down):  1.293E-02 0.000E+00

     negative rho (up, down):  1.293E-02 0.000E+00

     negative rho (up, down):  1.293E-02 0.000E+00

     negative rho (up, down):  1.293E-02 0.000E+00

     negative rho (up, down):  1.293E-02 0.000E+00
 BEEFens 2000 ensemble energies
             -0.600675203776192E+02
             -0.358084594532448E+01
             -0.157127187710309E+02
              0.425168199576282E+02
             -0.219280926375376E+02
             -0.203965604548744E+02
             -0.347709786607959E+02
             -0.855729669116450E+02
             -0.462386725707630E+02
             -0.469718729497982E+02
             -0.365784457706679E+02
              0.220299249453122E+01
              0.402937874315165E+01
              0.769602378450725E+01
              0.261126578364610E+01
              0.470655865653750E+02
             -0.207136104050944E+02
             -0.229798525759932E+02
              0.190653299330661E+02
             -0.111381349848650E+03
              0.530988225414340E+02
             -0.288292032067573E+02
             -0.327570265893743E+01
             -0.113377196422790E+02
             -0.889640616348515E+01
             -0.461802692141839E+01
              0.874885554279343E+02
             -0.184543804200239E+02
             -0.894141171168428E+01
             -0.513144258831188E+02
              0.809847460547703E+02
             -0.187324333738363E+02
             -0.371073190768637E+02
              0.247833634788087E+02
             -0.281259362740343E+01
              0.160945541996792E+02
             -0.490679791309896E+01
              0.108475197856438E+02
              0.284387721434808E+02
             -0.102390040838410E+03
              0.553356951833472E+02
              0.141310392101422E+02
             -0.157284304857802E+01
             -0.358891027864383E+02
              0.122124091151074E+02
             -0.144756282436095E+02
              0.393459935621637E+02
              0.361769277676209E+02
             -0.306795500225390E+02
             -0.272038005334789E+02
             -0.325455545191051E+02
             -0.348702906977783E+02
              0.133965323664775E+02
             -0.486047868343829E+02
              0.113886460857874E+02
              0.617510593366046E+02
              0.627980063784155E+02
              0.353021728938668E+02
              0.152751168982323E+02
              0.267292358182074E+02
              0.883161265963379E+02
              0.211442919788598E+02
             -0.543567433225914E+02
             -0.156516992612164E+02
             -0.233067925088441E+02
              0.624121824585924E+02
             -0.767151000621473E+02
             -0.666464103074622E+02
             -0.255978772438875E+02
             -0.625076585083104E+01
             -0.467677376658890E+02
              0.268208227493441E+02
              0.788950961556384E+01
              0.851710948439359E+01
             -0.393731872452844E+02
             -0.343471972035455E+02
             -0.536307005049739E+02
              0.387705911067019E+02
             -0.292555124826221E+02
              0.262166049652052E+02
             -0.707379809621619E+01
             -0.315617949557243E+02
             -0.571884985116064E+02
             -0.175346404419395E+02
             -0.888398432340000E+01
             -0.123439806761999E+02
              0.408787012098272E+02
              0.675205653115222E+02
             -0.381216668165919E+02
             -0.787345517973299E+02
             -0.218095021376354E+02
              0.110525441955886E+03
             -0.587276766117614E+02
              0.353424088655392E+02
             -0.944954831868097E+01
             -0.658098371303200E+02
              0.251983713753544E+02
              0.395716405995784E+02
             -0.197375698135056E+02
              0.397908027514645E+02
             -0.293960785513057E+02
             -0.471996483956128E+02
              0.856186695238738E+02
              0.449708867621152E+02
              0.334839253385704E+02
              0.145212158863212E+02
              0.203200102607106E+02
              0.849197601159932E+02
             -0.254432889608706E+02
              0.786088301932989E+01
             -0.141161538280772E+03
              0.179762432546550E+02
             -0.710319407013009E+02
              0.149768803963356E+02
              0.202542443023785E+02
             -0.329308121891263E+02
             -0.552743807648370E+02
              0.652535143015859E+01
             -0.301275490849429E+02
              0.303529949212121E+02
             -0.525777329312249E+02
              0.181061098200553E+01
             -0.353433475027339E+02
             -0.419248071515273E+01
             -0.110787297175128E+01
              0.178630340082189E+02
              0.143336149635149E+01
             -0.647119817001010E+01
              0.583932257925313E+02
              0.899722609031939E+02
              0.479519483561441E+02
              0.824942913882538E+02
             -0.113935471307285E+02
              0.142282230669185E+02
              0.536390182605691E+02
             -0.111809787932289E+02
             -0.728656514082590E+02
             -0.379705837531793E+02
             -0.517277099412334E+02
             -0.274013839655799E+02
              0.324994946698495E+02
             -0.115651065800011E+03
             -0.186199779284880E+02
              0.409532714058909E+02
             -0.382623820417335E+02
             -0.362947651690986E+02
              0.538550326731980E+02
              0.396247620151264E+02
             -0.351502962181163E+02
              0.134160226311801E+02
             -0.270875459064573E+02
              0.339621022146782E+02
              0.439619481960625E+01
              0.210543738419143E+02
             -0.877461348508315E+02
             -0.475873413095852E+02
             -0.987514566613345E+01
              0.325796825130620E+01
             -0.362677991534105E+02
              0.104998081327267E+03
             -0.230158078271440E+02
             -0.396433777382806E+02
              0.385352328340805E+02
             -0.490307204584195E+02
             -0.359654976528442E+02
              0.321761223687140E+02
              0.123296283731171E+02
              0.163590412250248E+02
              0.114807785982042E+02
             -0.131884810448236E+02
              0.224664043876086E+02
              0.585033029416152E+02
             -0.309346537292033E+02
              0.160390924091005E+02
              0.926435608500998E+02
              0.337789407115254E+02
             -0.726263294884609E+01
             -0.186424558660184E+02
              0.151905110392161E+03
             -0.161512701296937E+02
              0.359511449204145E+02
              0.191331249283092E+02
              0.359466392502644E+02
              0.883541185919586E+02
              0.538816819424734E+02
             -0.234470806671214E+01
              0.225168722039263E+02
              0.479895124102117E+02
              0.359746919192107E+02
             -0.519727097061002E+02
              0.927339372528025E+02
             -0.817819211265900E+02
             -0.197342952152396E+02
              0.577786477578144E+02
              0.654699375145362E+01
              0.784001049215806E+01
              0.338668452740928E+02
              0.298010023378262E+02
              0.350740239905267E+02
             -0.631925619646083E+02
              0.285428095541795E+01
             -0.295566744829214E+02
             -0.865714310476035E+01
             -0.141471756061355E+01
             -0.708360617511472E+01
             -0.407792851656370E+01
              0.851802323906680E+02
             -0.100729884587185E+02
             -0.273659717150886E+02
             -0.496385980464228E+01
              0.138544022826836E+02
             -0.557835977087572E+02
             -0.401585981733298E+02
             -0.379047836318342E+02
             -0.624300170644928E+02
             -0.167769875335320E+02
             -0.443856928191059E+02
              0.161665118540719E+02
             -0.243423239211970E+01
             -0.103132196231174E+02
             -0.927306140321983E+01
              0.804447287006087E+01
             -0.242115269895028E+02
              0.683382968495209E+02
             -0.798898063743298E+02
             -0.139767160474581E+02
             -0.172990536384086E+02
              0.180685806913365E+02
              0.212114134168763E+02
             -0.458929446754737E+02
             -0.201009886103324E+02
              0.436763663506631E+02
             -0.274584364688810E+02
              0.185653262162008E+02
              0.379959757528711E+02
             -0.321504718037841E+01
              0.113069933317758E+03
             -0.229449099637966E+02
             -0.337966704340852E+02
              0.578881380404732E+01
             -0.225521638906721E+02
              0.522333827516429E+02
             -0.332508112794174E+02
              0.105246687870012E+02
              0.636279402903147E+02
             -0.125219366899393E+02
              0.119142861252682E+03
              0.124677988214669E+03
             -0.643324752065291E+02
              0.585274330305865E+02
              0.164104405060280E+02
             -0.512466662979287E+02
              0.214805674850453E+02
              0.349670050900618E+02
              0.358077962431368E+02
              0.130277629793517E+01
              0.158045393185224E+02
              0.688654543107192E+02
             -0.244845603916170E+02
              0.180643024964764E+02
              0.733025171452491E+02
             -0.369267655433966E+02
             -0.127038368762841E+02
              0.502876960872467E+02
              0.294477188953432E+02
              0.773365027743745E+02
              0.219403263314304E+02
              0.610195893747760E+01
              0.278222249911573E+02
              0.379288432557613E+02
             -0.466570627372483E+02
              0.322276889045241E+01
              0.126756921631223E+02
              0.112407808535772E+02
              0.218174807802428E+02
             -0.569025998590069E+02
              0.363235861848428E+02
             -0.439904328006028E+02
             -0.344550975979353E+02
              0.176066021011537E+02
             -0.181004299598536E+02
              0.549255697711117E+02
             -0.255254199090988E+02
              0.264002988825209E+02
              0.365648120909801E+02
              0.822221472312946E+02
              0.569971641846235E+02
              0.456976708939432E+02
             -0.105878394294344E+02
             -0.377977908668061E+01
             -0.329451761377843E+02
              0.742930212580942E+02
              0.789473089777890E+02
              0.358074308115798E+02
             -0.189121017187533E+02
              0.507330900163140E+02
             -0.163267851927915E+02
              0.213554225252371E+02
              0.607891588158673E+02
              0.215652148227514E+01
             -0.103480618692956E+02
             -0.281443629891695E+02
             -0.505589372837721E+02
              0.936374754643946E+02
              0.434653319307311E+02
             -0.552812075925749E+02
             -0.939939624069910E+01
              0.247705551173365E+02
             -0.989298070535051E+01
              0.585839311547800E+02
              0.150786280497589E+02
              0.791669515483951E+02
              0.276519454924133E+02
             -0.261948694807433E+02
              0.247466477153222E+02
             -0.495667305284707E+01
             -0.321442223594485E+02
              0.131747606516954E+02
              0.204502852824710E+02
              0.924472757733955E+02
              0.790386420256934E+02
              0.545656846821586E+02
              0.724853361483081E+02
              0.795949550868764E+01
             -0.271427339915598E+02
              0.161885790314506E+02
             -0.365134196993849E+02
             -0.470825444635457E+02
             -0.558427615551744E+02
             -0.263579401778314E+02
             -0.108720324130149E+03
             -0.287743881936039E+02
             -0.829081445126749E+02
              0.208003228763905E+02
             -0.472993782304136E+02
              0.391914140322178E+02
             -0.932000120418000E+02
             -0.327364167002077E+02
              0.545417654894045E+02
              0.205595632772293E+02
             -0.822008239322474E+02
              0.626386082037245E+02
             -0.254067866058861E+02
              0.507343874596925E+02
             -0.240237107130104E+02
             -0.743852133710523E+02
              0.110405545935315E+02
             -0.605123772740466E+02
             -0.168281040088344E+02
             -0.146598956735980E+01
              0.414549243719313E+02
              0.125847370320660E+03
             -0.457881274198725E+02
             -0.359115637264537E+02
             -0.924596886928327E+00
             -0.129744045086701E+02
             -0.815112004812996E+02
             -0.591768860140236E+02
              0.512760509623882E+02
             -0.287505902146879E+02
              0.166871253379714E+02
             -0.484881240592591E+02
             -0.130371938915130E+02
             -0.433562427789957E+02
              0.561178296973254E+02
              0.150019385855546E+02
             -0.229333850317913E+02
             -0.125010858136152E+02
              0.654015004205506E+01
             -0.613202305924102E+01
              0.437869495014222E+02
             -0.249676648109821E+02
              0.264076359630565E+01
              0.336064519444512E+02
              0.170329449935800E+02
             -0.157406110486172E+02
              0.154847449055747E+03
              0.532308803286115E+02
              0.105089127651928E+01
              0.161263678363387E+02
             -0.609230263940201E+02
              0.311978982516135E+02
             -0.714317892904330E+02
             -0.248790461083563E+02
             -0.517011819741716E+02
             -0.218376980496334E+02
              0.563664088687780E+02
             -0.531667880545814E+02
              0.158091846344971E+02
             -0.403854829114027E+01
              0.387251685723319E+01
             -0.431194365831822E+02
             -0.474677668182602E+02
             -0.394469144027414E+01
             -0.422314967760102E+02
             -0.215081065047890E+02
             -0.434675167836745E+02
             -0.118921045267312E+02
             -0.356085014334120E+02
             -0.512057320791440E+02
              0.210964356886717E+02
             -0.208436710022747E+02
              0.185596459259742E+02
              0.968578080884721E+01
             -0.730949336467160E+02
             -0.543644578741398E+02
             -0.393270875704328E+02
              0.351484583792158E+02
              0.278870689438679E+01
             -0.621165883804052E+02
              0.580462130067768E+02
             -0.397178624378986E+02
              0.539036846273383E+02
             -0.286664878284263E+02
             -0.441586921692756E+02
              0.296318126046106E+02
             -0.650815587671802E+02
             -0.377097815221562E+02
              0.667795010654203E+02
              0.202121633423642E+02
             -0.355843698476857E+02
              0.484369077452436E+02
             -0.172540678570061E+02
             -0.319270893173848E+02
             -0.299076682340244E+02
             -0.495841935003846E+02
              0.247045526335601E+02
             -0.925225682190029E+02
             -0.833468912991114E+02
             -0.726704368636024E+01
             -0.304227740259435E+02
             -0.570077183761944E+02
              0.714670327853330E+02
              0.130254692476743E+03
             -0.359277381942697E+02
             -0.250967154104194E+01
             -0.631774149377232E+02
              0.644423663323133E+02
              0.168663993082993E+02
             -0.179636793002351E+02
             -0.406854718888554E+02
              0.147294377458507E+02
             -0.580748281601621E+02
             -0.196814976939145E+02
             -0.896964743550861E+02
              0.333783153736330E+02
              0.168264404636513E+02
              0.191266268367417E+01
             -0.693112243159192E+01
             -0.325480689799199E+02
             -0.745407071133087E+01
              0.124241332952423E+03
             -0.197669868726581E+02
             -0.432818225959394E+02
             -0.677523133279537E+02
              0.107914904170764E+02
             -0.338420071140051E+02
              0.580094586283320E+01
              0.258275213001883E+02
              0.101776748822310E+02
              0.274440195461293E+02
              0.118047483642505E+02
              0.624248837391311E+02
              0.314747958085975E+02
             -0.323047927360231E+02
              0.350058468261617E+02
              0.376546157334465E+02
              0.119793719902406E+02
              0.483922157733067E+02
             -0.221519921703961E+02
              0.759316131054845E+02
              0.169813125005201E+02
             -0.268864211642709E+02
             -0.719469948738768E+01
             -0.184878108917251E+02
              0.260682552625672E+02
             -0.232226103382557E+02
              0.128855321050025E-01
             -0.836767447662965E+01
              0.802202656356629E+02
              0.494660765083245E+02
             -0.681544427920343E+02
             -0.468021696685219E+01
             -0.551195781500949E+02
             -0.158435296279267E+02
             -0.266549922095007E+02
              0.363734808107279E+01
              0.618773900328851E+00
             -0.254911343657675E+02
              0.796803120516637E+01
             -0.593810425171225E+01
             -0.128171173124292E+02
              0.850928662059523E+02
              0.180523649100671E+02
             -0.799081854417553E+02
             -0.455091030905054E+02
              0.935960951544430E+02
              0.275613041340975E+02
             -0.106100951259074E+02
              0.103536444919419E+03
             -0.193472194817108E+02
             -0.122470884677273E+02
             -0.527708595029310E+01
              0.105974939288296E+02
              0.269093776309738E+02
              0.779645168770907E+01
              0.302862377771784E+02
             -0.187072275448899E+02
             -0.299790159631702E+02
             -0.414093345353683E+02
             -0.472474884976732E+02
              0.460444166798640E+02
              0.125570011569086E+02
              0.384172703905500E+02
              0.132014549983601E+02
              0.847286447142396E+02
              0.154452551827515E+02
             -0.838972411485950E+02
             -0.331580688002389E+02
              0.133713099573802E+02
             -0.300386453694558E+02
              0.620646478955988E+02
             -0.870151568909569E+01
              0.147128433128821E+02
              0.492047732367828E+02
             -0.699627926669257E+02
              0.148394577247747E+03
              0.207019393615209E+02
              0.269198083123975E+02
              0.344065319423567E+02
              0.103584351519100E+02
             -0.155281217587981E+01
              0.355653897894968E+02
             -0.353938817236784E+02
              0.764979300918723E+02
              0.677757956831639E+02
             -0.402452156354217E+02
              0.148097146034979E+02
              0.663433481102466E+02
             -0.222026819084459E+02
              0.152325356933961E+02
              0.432378221529350E+02
              0.418575868145060E+02
             -0.778040285076833E+02
             -0.152331535014072E+02
             -0.353915043564529E+02
             -0.142433730233921E+01
             -0.761288707891075E+01
             -0.554367867316341E+01
             -0.179750631024521E+02
             -0.290909337351359E+02
              0.616929236683713E+01
              0.111284786147651E+02
              0.530836838283556E+02
             -0.385840437729730E+02
              0.369861260579246E+02
              0.433862992760051E+02
             -0.185992516339026E+02
              0.865459750367027E+02
             -0.691667248979567E+02
             -0.102225420762699E+03
             -0.649794335851662E+01
             -0.261784485208671E+01
              0.388339001072825E+01
              0.782224512740939E+02
             -0.107167386107115E+02
              0.412755894603605E+02
              0.437874182790037E+02
              0.381735710813589E+02
             -0.988957050142733E+01
              0.622383107287112E+02
             -0.132139825599806E+02
             -0.303601672321668E+02
             -0.476651854092498E+02
              0.577229525238775E+01
              0.366665925715761E+02
             -0.600360699861565E+01
              0.390108793852710E+02
             -0.174052793701864E+01
              0.650327347504943E+02
              0.185939939530959E+02
              0.991248707533063E+01
             -0.122251050470852E+02
              0.329560406886119E+02
              0.358801999600262E+02
              0.231482796336693E+02
             -0.478231970796855E+00
             -0.545522907838959E+02
              0.257814410097919E+02
              0.173176272465732E+02
              0.399752631955868E+02
              0.269456720692651E+02
              0.369115980753322E+02
             -0.595923650427423E+01
              0.247703280743044E+02
             -0.295936923034030E+02
             -0.195837801569064E+01
             -0.564475609700395E+02
             -0.304669628232841E+02
              0.374748740107169E+02
             -0.927648348577331E+02
              0.292383395156404E+02
              0.182804614556674E+02
              0.832168489874686E+02
             -0.299837099104673E+02
              0.326396679731514E+02
             -0.136807424898963E+02
             -0.459410914344028E+02
             -0.755820788285245E+02
             -0.510205379484763E+01
             -0.851623670311414E+02
              0.199296368263556E+02
             -0.245548021709861E+02
              0.302745600087798E+02
              0.234637477046956E+02
             -0.238310531964221E+02
             -0.262535906632354E+02
              0.387086213439759E+02
             -0.582918956849332E+02
             -0.115307170777064E+02
             -0.194623470950739E+02
              0.210097931620892E+02
             -0.899566317182979E+01
              0.358066781133044E+01
             -0.199421333928240E+02
              0.553797029356032E+02
             -0.433804843211091E+02
              0.781933512574562E+01
              0.579644404929402E+02
             -0.319793288134482E+02
              0.355781680683376E+01
             -0.886484394924219E+01
             -0.663640134747118E+02
             -0.479396823901586E+02
             -0.861191915313782E+01
              0.237780564379493E+02
              0.299011410379869E+02
              0.856643380131050E+01
             -0.401449011478621E+01
              0.150378124122879E+02
             -0.436463050876501E+02
              0.338737743435217E+01
             -0.526389624141053E+02
             -0.322361315881325E+02
              0.470007798083377E+02
             -0.292310525485349E+02
              0.615843035149402E+02
             -0.212560050689883E+02
              0.350768086718450E+02
              0.239420591455548E+02
             -0.638680601544805E+02
             -0.278252635173466E+02
              0.922882771449494E+01
             -0.367687069065518E+02
             -0.335923108793079E+02
             -0.821724847528931E+02
             -0.534327042899457E+02
             -0.505901461911749E+02
             -0.411249753523547E+02
             -0.993426747657480E+00
              0.970785410617776E+01
              0.916971667269081E+00
              0.150437398827264E+02
             -0.543986964566979E+02
              0.140583903936244E+02
              0.253928778797389E+02
             -0.660555919192675E+02
             -0.696968847029435E+02
             -0.427745905722179E+02
             -0.168573060375311E+02
              0.177318793476117E+02
              0.459149147074106E+01
             -0.422135940926615E+02
              0.363834690894514E+02
             -0.213979873441675E+02
              0.512807459976314E+02
             -0.878999520056839E+02
              0.591624796656249E+02
             -0.199403035790359E+01
             -0.364477624416546E+02
             -0.213755512769711E+02
              0.471701617383000E+01
              0.369879055097959E+02
             -0.749969649043682E+02
             -0.119521660484907E+02
             -0.215204698391283E+02
              0.507504147020368E+02
              0.857490859426040E+02
             -0.955987000838543E+02
              0.935737647037990E+02
              0.464359991904185E+02
             -0.718493177337447E+02
             -0.363729312311370E+02
              0.744683213839131E+02
              0.627039758043256E+02
             -0.179244289749981E+02
             -0.457622368863576E+01
              0.713664332038624E+01
              0.641805950315433E+02
             -0.502832010496008E+02
              0.157279760773548E+02
             -0.463920647690342E+01
              0.345534901827652E+02
             -0.740541045759158E+02
             -0.645771330882218E+01
             -0.348869079068182E+02
              0.456171738037322E+02
              0.465374385027173E+02
             -0.853641555580876E+02
             -0.482658880393168E+02
             -0.254464867119784E+02
             -0.335176165950554E+02
             -0.108172689866338E+02
             -0.241372794395502E+02
              0.423283030560436E+02
              0.397119712413898E+02
             -0.564908391295000E+01
             -0.412056693289796E+02
             -0.842590949817519E+02
              0.438421558189481E+02
             -0.519248927917687E+02
             -0.309461815799152E+02
              0.540030964584845E+01
             -0.318993103327287E+02
             -0.394127358651646E+02
             -0.237293341171203E+02
             -0.380577969763457E+02
             -0.268593430054540E+02
             -0.478017790098382E+02
              0.558949604920458E+02
              0.632987087312341E+02
             -0.160355843293451E+01
             -0.259410318328255E+02
             -0.631397141932598E+01
              0.437434092877288E+02
             -0.860252341304476E+02
             -0.143979179295280E+02
              0.519366666502290E+02
              0.656928290504826E+02
             -0.243972283935614E+02
              0.905293394191335E+01
              0.518702531923344E+02
              0.196878605678177E+02
             -0.830693223234266E+01
             -0.449634451863702E+02
              0.279419379245654E+02
             -0.349655138031238E+02
             -0.164334740661481E+02
             -0.150899821499822E+02
             -0.199010764887582E+02
              0.192576935239122E+02
              0.793346185525163E+02
              0.195201533477547E+01
              0.533888261460166E+01
             -0.879097250653885E+02
             -0.174251223173791E+02
             -0.349353947140110E+02
              0.276981573146685E+01
             -0.405269940126660E+02
              0.721957780654052E+02
              0.776672819550228E+02
              0.122302383865902E+02
             -0.139274106469006E+02
              0.142240043697770E+02
              0.258710149852054E+02
             -0.477751469905076E+02
             -0.864625038549639E+01
              0.136106704920791E+02
              0.163551421002001E+02
              0.558834596882574E+02
              0.418221919446606E+02
             -0.195959544176163E+02
              0.329236542872082E+02
             -0.959458027697907E+02
             -0.534915736608070E+00
              0.839356812393506E+02
              0.896270412833837E+01
              0.144516937487163E+01
              0.333054280653110E+02
             -0.296051385962677E+02
              0.950927360566947E+02
[...]
              0.281658842684678E+02
              0.140558087719688E+03
              0.239425690534448E+02
              0.120857760805043E+02
             -0.460068610327368E+02
             -0.632427008013619E+02
             -0.187916809444382E+02
              0.327055702643033E+02
             -0.421598128010373E+01
              0.187417030202552E+02
              0.332857928655138E+02
             -0.580772428316653E+02
              0.219839052456160E+02
              0.579435439153834E+02
              0.547712905866279E+02
             -0.409746668363056E+01
             -0.143156342704856E+01
             -0.988552602159879E+01
             -0.478407376526089E+02
             -0.668161328465877E+02
              0.778511428444333E+02
             -0.512200133386489E+01
             -0.582962175289474E+02
              0.161071587866792E+01
             -0.202360248092226E+02
              0.930707518422840E+02
             -0.214316852397345E+02
             -0.349998379522852E+02
              0.331736772742735E+02
             -0.144136608864527E+02
              0.385141851377377E+02
             -0.240995559726940E+01
              0.100238758204131E+03
              0.484491333294856E+02
             -0.526716934964659E+01
             -0.318088633867307E+02
              0.229499582560275E+02
             -0.523415984080309E+02
             -0.127596855491689E+02
              0.579703953557664E+02
             -0.285312155767498E+02
             -0.434325664232878E+02
             -0.221011577183741E+02
              0.513940289637294E+02
              0.123741927576210E+02
             -0.841440156594679E+02
              0.300781667288113E+02
              0.151619093275390E+02
              0.565767752825286E+01
             -0.509025484745954E+02
             -0.387590522477660E+01
              0.319911092397474E+02
              0.508798724903011E+02
              0.626328237034722E+02
              0.225531749638902E+02
              0.672613728096621E+00
             -0.492779387415404E+02
             -0.506206403828897E+02
             -0.742146301314884E+02
             -0.598840096684773E+01
              0.305814559406337E+02
             -0.382055774904069E+01
              0.542083545210866E+02
             -0.314971802830652E+02
              0.164819928254576E+02
             -0.100347588221638E+02
             -0.287017591424991E+02
              0.580127329708447E+02
              0.788383003433910E+01
              0.598230116559705E+02
              0.503655477268603E+01
              0.263330038162774E+02
             -0.191183951307196E+02
              0.580461932647110E+02
             -0.109813767841941E+02
             -0.127732940691571E+00
             -0.782842632483359E+02
             -0.127839100248305E+02
              0.712725167846400E+02
              0.667339150486695E+02
              0.249266233156618E+02
             -0.128703462650726E+02
              0.337676197269059E+01
             -0.171127980436331E+02
             -0.183670019029051E+01
              0.899256661787952E+02
              0.116803678442113E+01
             -0.187401947560133E+02
             -0.109764515083535E+03
             -0.548972660120235E+02
             -0.371391783856259E+02
             -0.652871868231162E+02
             -0.549876513865134E+02
             -0.676049679699235E+02
             -0.442848940850984E+02
             -0.408547584936359E+02
             -0.447269787308234E+02
              0.479463459895455E+02
             -0.292826535624833E+02
             -0.988087097300919E+02
              0.415113657755550E+02
             -0.256725332712607E+02
             -0.783360912261098E+02
              0.934454967551898E+02
             -0.217317413328247E+02
              0.226844295627127E+02
              0.451876002989976E+02
             -0.149600872296168E+01
              0.251841226787221E+02
              0.470261858078200E+01
              0.404919854129426E+00
             -0.149455416543690E+02
             -0.708695438218307E+02
              0.132329553311979E+02
             -0.128292238853962E+03
              0.617145602419591E+02
             -0.436888389741905E+02
             -0.160990235276155E+02
             -0.156028267717179E+02
              0.690492657539567E+01
             -0.226394305703300E+02
              0.294540961921281E+02
             -0.514824408139822E+02
              0.363966763423096E+02
              0.366752628759041E+02
              0.167808714746650E+02
              0.997442906727252E+01
              0.195728590214100E+02
              0.609938453387389E+01
              0.307661484404125E+02
             -0.796354433963111E+01
             -0.584835300626262E+02
              0.749108211286079E+01
             -0.149135486256125E+02
             -0.189465261790724E+01
              0.500796645869699E+02
             -0.819519658693118E+02
             -0.152424264556839E+01
              0.526016357105334E+00
              0.986977445907826E+01
              0.315541288242915E+02
             -0.122464841482236E+02
              0.827891819055761E+02
              0.484597285443414E+02
             -0.181953590897134E+02
             -0.949344143840915E+01
              0.996428292910622E+00
              0.762267827346260E+02
             -0.581765377515126E+02
             -0.104832187611511E+03
              0.306636720379188E+02
             -0.162264242345207E+02
             -0.138062774533981E+02
              0.128595905445687E+02
              0.761468671695983E+02
              0.460289114445479E+02
             -0.151846400761386E+02
             -0.497815490451399E+02
             -0.536030227225257E+01
              0.303871479679774E+02
             -0.109765743997543E+02
             -0.748522576191201E+02
             -0.260291512600895E+01
             -0.880475196747568E+02
             -0.470568208284723E+02
              0.759959450851835E+02
             -0.478565860341737E+02
             -0.629532223273679E+02
             -0.509444327565953E+02
             -0.345796164148175E+02
              0.337824855801117E+02
              0.813495374432396E+02
             -0.346024956522757E+01
              0.274042362904718E+02
             -0.181708801878169E+02
             -0.687398486008317E+02
              0.460243713438026E+02
             -0.440302414090363E+02
              0.319683628594906E+02
              0.373637545447073E+02
             -0.638641551048119E+01
              0.387189682341822E+02
              0.434877774627762E+02
              0.994861738480101E+02
             -0.155316283584532E+02
             -0.450316636917813E+02
             -0.606403394348542E+02
             -0.121878083809718E+02
             -0.228619633877487E+02
              0.102164365206377E+03
             -0.444852138056841E+02
              0.104132602745324E+02
              0.971437381123690E+01
             -0.262882336993106E+02
             -0.790398028645238E+02
             -0.693628049752306E+01
              0.970272968935766E+02
              0.915217612745325E+01
              0.803055140288336E+01
             -0.521131761200610E+02
             -0.600155591242835E+02
             -0.544297956058915E+01
              0.496080428959733E+02
             -0.219342367882632E+02
              0.107032311050101E+03
             -0.430996211857297E+02
              0.144338592748711E+02
             -0.223052006190848E+02
             -0.712758156154632E+02
              0.160640746103968E+01
             -0.496273614522565E+02
             -0.753595037462142E+02
              0.603085131986762E+01
              0.234028221179369E+01
              0.509469024739623E+02
              0.184476107106787E+02
             -0.320259052785285E+02
              0.228056431624840E+02
             -0.802274392752201E+02
             -0.517392159023179E+02
              0.892974154910515E+02
              0.142087992515573E+02
             -0.187946831365756E+02
             -0.350141718027776E+02
             -0.268689205388478E+01
             -0.574118555005703E+01
              0.821273469218281E+02
              0.413853767308349E+02
             -0.165417074665575E+02
             -0.122292317702406E+02
             -0.424167485093839E+02
             -0.199594011402725E+02
             -0.664147382190489E+02
              0.454708730158347E+02
              0.540475878757184E+01
              0.144302745526646E+02
              0.154132959932143E+02
             -0.416245225543971E+00
             -0.166168124669705E+02
             -0.320765197878125E+01
             -0.993441273742308E+02
             -0.229002108119645E+02
             -0.755050658378775E+01
             -0.942805183326280E+01
              0.541883505611351E+02
              0.617607356487719E+02
              0.163106153240744E+02
             -0.961810606160831E+02
              0.641467208507298E+02
             -0.212696869833623E+02
             -0.373393658599231E+02
             -0.855762043682397E+02
             -0.384682461386649E+02
              0.558276423296017E+02
              0.240959980089187E+02
              0.497526813085437E+01
              0.288773893879839E+02
             -0.559658692550375E+02
             -0.417429390204136E+02
              0.509170172429355E+02
              0.383169418746531E+02
              0.514479053047113E+02
             -0.133557480059088E+01
              0.673676514429673E+01
              0.564517659319056E+02
              0.953241784878600E+02
             -0.298769207644692E+02
              0.318801456651286E+02
             -0.115301824977018E+02
             -0.407954661874181E+02
             -0.310909926098919E+02
             -0.296840379936023E+02
             -0.129945321456888E+02
             -0.518795168561314E+02
             -0.215519424418833E+02
             -0.139948595483005E+03
              0.366156245954652E+02
              0.203915697589851E+02
             -0.390041728248993E+01
             -0.376379895367261E+02
             -0.202406023730845E+02
             -0.521264988521097E+02
              0.150864994468544E+02
              0.812492786938942E+02
             -0.250544455483493E+02
             -0.161097561334608E+02
              0.236020627218206E+02
             -0.484582789676419E+02
              0.872446779778321E+02
              0.152966311210434E+02
              0.226035886574867E+02
              0.485186448210843E+02
              0.328089156712610E+01
              0.536415224755124E+02
              0.140931883854997E+02
             -0.106537401848695E+02
              0.717043309243883E+01
              0.908367080484368E+00
              0.721122476814813E+02
              0.100504392769530E+02
              0.118300236802564E+02
             -0.129252223950291E+02
              0.131385280752087E+02
             -0.902234828807985E+02
             -0.322404321789165E+02
             -0.452570317541131E+02
              0.480512042944140E+02
             -0.287677105150858E+02
             -0.653464160421937E+02
              0.532467839193688E+02
             -0.120790115671770E+02
              0.436182706279908E+02
             -0.890179538961066E+02
              0.230480684676734E+02
              0.853802227478772E+01
              0.575192312354000E+01
             -0.818869140001976E+01
             -0.896599392917835E+01
              0.474721928099115E+02
              0.197378589300303E+01
             -0.469648548590728E+02
             -0.174051161668133E+02
              0.275048019633182E+02
             -0.116843764677900E+03
             -0.921522206869897E+02
              0.397295717537020E+01
              0.115936471145731E+02
             -0.408121898748524E+02
             -0.390611871840395E+01
              0.111158860732487E+03
              0.303729764050004E+02
             -0.566522734472132E+02
              0.917474898422316E+01
             -0.953290309329806E+01
              0.104393784022100E+02
             -0.334042989463160E+02
              0.193117990167238E+02
              0.282331511326067E+02
             -0.289234267097555E+01
              0.107078594655167E+03
             -0.140228920775007E+02
             -0.313047426355542E+02
              0.139581463015566E+02
              0.462711464377135E+02
             -0.352962061650441E+02
             -0.316101985434663E+01
              0.955444193282470E+02
             -0.465221373729412E+01
              0.616668430020777E+02
              0.133783209865160E+02
             -0.896427302326623E+01
             -0.303994815723917E+02
              0.562084536331954E+02
             -0.508385776147190E+02
             -0.220230332069275E+01
             -0.168080589898072E+02
             -0.401418057127123E+02
              0.183811082923277E+02
              0.236736291723088E+02
              0.116402349980640E+02
              0.745222204868924E+00
             -0.380235801737302E+02
              0.213981979852443E+02
             -0.674792335959987E+01
             -0.244497863625306E+02
             -0.208680139177006E+02
              0.201964613053646E+02
             -0.597530105724707E+01
             -0.345403725154865E+02
             -0.105583238460751E+03
              0.102183476337238E+02
              0.247728588644439E+02
             -0.382345693806272E+02
             -0.208523820905991E+02
              0.799046062053950E+02
              0.637043816612149E+01
              0.306192596923421E+02
              0.376985125066051E+01
              0.317801896283417E+02
              0.645373199680751E+01
             -0.369114663761674E+02
             -0.218519728700844E+01
              0.871284186363022E+01
              0.270717393092104E+02
              0.774824614656526E+02
              0.502760677582939E+02
              0.140444263638983E+00
              0.168066396433685E+02
              0.607422816189403E+02
              0.232987118181273E+02
             -0.746444167033852E+02
             -0.271099087132065E+02
              0.150203874978472E+02
              0.551094702078154E+01
              0.252531845802620E+02
             -0.543018496676673E+02
              0.894298532529695E+01
              0.381771761549984E+02
              0.493363008058687E+02
             -0.430849641065818E+02
             -0.695685275499477E+01
             -0.204786901935199E+01
             -0.131652873837628E+02
             -0.363255151538298E+02
             -0.214262110915241E+02
             -0.187284766598987E+01
              0.781182737928759E+01
              0.417305975298427E+02
             -0.304913037841932E+02
              0.818427452290073E+02
              0.324070320135813E+02
              0.217025297774031E+02
              0.329436959206120E+02
              0.321038740395650E+02
              0.342700436489974E+02
              0.531864460736921E+02
             -0.429303412743605E+02
              0.613538003146878E+02
             -0.111168351640627E+03
              0.304464009015387E+02
             -0.105527305561665E+03
              0.847007333219753E+02
              0.682938354944132E+02
             -0.109104336700127E+02
             -0.488934956732925E+02
             -0.425490028802503E+02
             -0.618541615009342E+02
             -0.622390944794980E+02
              0.546426329331158E+02
              0.401357949333490E+02
              0.234404320589160E+02
              0.371683836912050E+02
              0.398562099275474E+02
             -0.378197241336997E+02
             -0.196597117971639E+02
              0.581514573904385E+02
             -0.114872211537493E+02
              0.547100037609098E+02
              0.691791166996230E+02
             -0.551023583247679E+01
             -0.698957340865275E+02
             -0.964778777563879E+00
             -0.248967215103242E+01
             -0.871850303089218E+01
             -0.183599413880626E+01
             -0.646941108695236E+02
             -0.210257426139125E+02
              0.524961229845994E+01
              0.883466252240669E+01
              0.464001208957824E+02
             -0.393596248448407E+02
              0.652997245975134E+02
             -0.421701880878478E+02
              0.207633533648410E+02
              0.346053474474571E+02
 
 BEEF-vdW xc energy contributions
           1 :   -776.298033382858     
           2 :    713.822193790943     
           3 :   -605.371244954941     
           4 :    477.307323615267     
           5 :   -356.702179708387     
           6 :    263.249085200048     
           7 :   -204.687768495968     
           8 :    176.698535075926     
           9 :   -166.830179240605     
          10 :    160.574235992948     
          11 :   -147.104660181368     
          12 :    122.531095266320     
          13 :   -89.8144549131762     
          14 :    55.9287790213134     
          15 :   -27.9040342500714     
          16 :    9.55135525433923     
          17 :  -0.156365749367069     
          18 :   -4.59907165814889     
          19 :    10.1854309301679     
          20 :   -20.5296543184431     
          21 :    36.3137532853713     
          22 :   -54.9464288034967     
          23 :    72.0525825306003     
          24 :   -83.6613333144570     
          25 :    88.0185689512057     
          26 :   -86.2244408125345     
          27 :    81.4957376538343     
          28 :   -77.5071663142372     
          29 :    76.6518328804058     
          30 :   -79.0361285277605     
          31 :   -84.8808941977946     
          32 :   -65.1694683309133     

     Writing output data file ./pwscf.save/
 
     init_run     :    310.91s CPU    315.18s WALL (       1 calls)
     electrons    :  12646.33s CPU  12772.51s WALL (       1 calls)
     forces       :     93.68s CPU     94.81s WALL (       1 calls)

     Called by init_run:
     wfcinit      :    264.15s CPU    267.47s WALL (       1 calls)
     potinit      :     43.94s CPU     44.25s WALL (       1 calls)
     hinit0       :      1.07s CPU      1.12s WALL (       1 calls)

     Called by electrons:
     c_bands      :  10553.56s CPU  10647.42s WALL (      20 calls)
     sum_band     :   1421.22s CPU   1432.66s WALL (      20 calls)
     v_of_rho     :    103.53s CPU    107.51s WALL (      20 calls)
     newd         :     28.11s CPU     38.86s WALL (      20 calls)
     PAW_pot      :    132.27s CPU    132.27s WALL (      20 calls)
     mix_rho      :    452.30s CPU    452.90s WALL (      20 calls)
     vdW_kernel   :     33.50s CPU     33.50s WALL (       1 calls)

     Called by c_bands:
     init_us_2    :     70.50s CPU     70.70s WALL (     546 calls)
     cegterg      :   9791.10s CPU   9884.74s WALL (     260 calls)

     Called by *egterg:
     cdiaghg      :     84.50s CPU     84.53s WALL (    1364 calls)
     h_psi        :   6231.60s CPU   6264.33s WALL (    1390 calls)
     s_psi        :   1022.59s CPU   1022.60s WALL (    1390 calls)
     g_psi        :     16.00s CPU     16.01s WALL (    1117 calls)

     Called by h_psi:
     h_psi:calbec :    966.61s CPU    966.72s WALL (    1390 calls)
     vloc_psi     :   4217.20s CPU   4218.74s WALL (    1390 calls)
     add_vuspsi   :   1022.33s CPU   1022.37s WALL (    1390 calls)

     General routines
     calbec       :   1409.78s CPU   1409.91s WALL (    1702 calls)
     fft          :     46.74s CPU     46.77s WALL (    3220 calls)
     ffts         :    142.77s CPU    142.80s WALL (   10558 calls)
     fftw         :   4274.14s CPU   4275.17s WALL (  338848 calls)
 
     Parallel routines
 
     PWSCF        :      3h39m CPU      3h41m WALL

 
   This run was terminated on:   0:51:26  27Sep2022            

=------------------------------------------------------------------------------=
   JOB DONE.
=------------------------------------------------------------------------------=
