
     Program PWSCF v.6.7MaX starts on 20Dec2022 at 15:57:17 

     This program is part of the open-source Quantum ESPRESSO suite
     for quantum simulation of materials; please cite
         "P. Giannozzi et al., J. Phys.:Condens. Matter 21 395502 (2009);
         "P. Giannozzi et al., J. Phys.:Condens. Matter 29 465901 (2017);
          URL http://www.quantum-espresso.org", 
     in publications or presentations arising from this work. More details at
     http://www.quantum-espresso.org/quote

     Parallel version (MPI), running on     1 processors

     MPI processes distributed on     1 nodes
     Reading input from ooh-ensemble.in
Warning: card &CELL ignored
Warning: card / ignored

     Current dimensions of program PWSCF are:
     Max number of different atomic species (ntypx) = 10
     Max number of k-points (npk) =  40000
     Max angular momentum in pseudopotentials (lmaxx) =  3
     file Pt.pbe-n-kjpaw_psl.1.0.0.UPF: wavefunction(s)  6S 5D renormalized
     file O.pbe-nl-kjpaw_psl.1.0.0.UPF: wavefunction(s)  2S 2P renormalized
     file H.pbe-kjpaw_psl.1.0.0.UPF: wavefunction(s)  1S renormalized

     **************************************************************************
     Initializing libbeef V0.1.2 with the BEEF-vdW functional.
     Citation: Wellendorff et al., PRB 85, 235149 (2012).
     **************************************************************************


     IMPORTANT: XC functional enforced from input :
     Exchange-correlation= BEEF-VDW
                           (   1   4  43  14   2   0   0)
     Any further DFT definition will be discarded
     Please, verify this is what you really want


     Subspace diagonalization in iterative solution of the eigenvalue problem:
     a serial algorithm will be used

 
     G-vector sticks info
     --------------------
     sticks:   dense  smooth     PW     G-vecs:    dense   smooth      PW
     Sum        4267    4267   1159               717331   717331  100997
 


     bravais-lattice index     =            0
     lattice parameter (alat)  =      16.0349  a.u.
     unit-cell volume          =   11419.1962 (a.u.)^3
     number of atoms/cell      =           39
     number of atomic types    =            3
     number of electrons       =       373.00
     number of Kohn-Sham states=          224
     kinetic-energy cutoff     =      60.0000  Ry
     charge density cutoff     =     240.0000  Ry
     scf convergence threshold =      1.0E-06
     mixing beta               =       0.7000
     number of iterations used =            8  local-TF  mixing
     Exchange-correlation= BEEF-VDW
                           (   1   4  43  14   2   0   0)

     celldm(1)=  16.034858  celldm(2)=   0.000000  celldm(3)=   0.000000
     celldm(4)=   0.000000  celldm(5)=   0.000000  celldm(6)=   0.000000

     crystal axes: (cart. coord. in units of alat)
               a(1) = (   1.000000   0.000000   0.000000 )  
               a(2) = (   0.500000   0.866025   0.000000 )  
               a(3) = (   0.000000   0.000000   3.198229 )  

     reciprocal axes: (cart. coord. in units 2 pi/alat)
               b(1) = (  1.000000 -0.577350  0.000000 )  
               b(2) = (  0.000000  1.154701  0.000000 )  
               b(3) = (  0.000000  0.000000  0.312673 )  


     PseudoPot. # 1 for Pt read from file:
     /users/bkreitz1/quantum-espresso/potentials/Pt.pbe-n-kjpaw_psl.1.0.0.UPF
     MD5 check sum: 04dc8a03c51ece93fc7b5889c2958091
     Pseudo is Projector augmented-wave + core cor, Zval = 10.0
     Generated using 'atomic' code by A. Dal Corso  v.6.7MaX
     Shape of augmentation charge: PSQ
     Using radial grid of 1277 points,  6 beta functions with: 
                l(1) =   0
                l(2) =   0
                l(3) =   1
                l(4) =   1
                l(5) =   2
                l(6) =   2
     Q(r) pseudized with 0 coefficients 


     PseudoPot. # 2 for O  read from file:
     /users/bkreitz1/quantum-espresso/potentials/O.pbe-nl-kjpaw_psl.1.0.0.UPF
     MD5 check sum: eef08af8b58d9ec80f8fdb78829eb7cf
     Pseudo is Projector augmented-wave + core cor, Zval =  6.0
     Generated using 'atomic' code by A. Dal Corso  v.6.7MaX
     Shape of augmentation charge: PSQ
     Using radial grid of 1095 points,  4 beta functions with: 
                l(1) =   0
                l(2) =   0
                l(3) =   1
                l(4) =   1
     Q(r) pseudized with 0 coefficients 


     PseudoPot. # 3 for H  read from file:
     /users/bkreitz1/quantum-espresso/potentials/H.pbe-kjpaw_psl.1.0.0.UPF
     MD5 check sum: ae98473e6dc62675f0d0baffdab24f65
     Pseudo is Projector augmented-wave, Zval =  1.0
     Generated using 'atomic' code by A. Dal Corso  v.6.7MaX
     Shape of augmentation charge: PSQ
     Using radial grid of  929 points,  2 beta functions with: 
                l(1) =   0
                l(2) =   0
     Q(r) pseudized with 0 coefficients 


     atomic species   valence    mass     pseudopotential
        Pt            10.00   195.08400     Pt( 1.00)
        O              6.00    15.99900     O ( 1.00)
        H              1.00     1.00800     H ( 1.00)

     No symmetry found



   Cartesian axes

     site n.     atom                  positions (alat units)
         1           Pt  tau(   1) = (   0.0000000   0.0000000   1.0017346  )
         2           Pt  tau(   2) = (   0.3333333   0.0000000   1.0017346  )
         3           Pt  tau(   3) = (   0.6666667   0.0000000   1.0017346  )
         4           Pt  tau(   4) = (   0.1666667   0.2886751   1.0017346  )
         5           Pt  tau(   5) = (   0.5000000   0.2886751   1.0017346  )
         6           Pt  tau(   6) = (   0.8333333   0.2886751   1.0017346  )
         7           Pt  tau(   7) = (   0.3333333   0.5773503   1.0017346  )
         8           Pt  tau(   8) = (   0.6666667   0.5773503   1.0017346  )
         9           Pt  tau(   9) = (   1.0000000   0.5773503   1.0017346  )
        10           Pt  tau(  10) = (   0.1666667   0.0962250   1.2739001  )
        11           Pt  tau(  11) = (   0.5000000   0.0962250   1.2739001  )
        12           Pt  tau(  12) = (   0.8333333   0.0962250   1.2739001  )
        13           Pt  tau(  13) = (   0.3333333   0.3849002   1.2739001  )
        14           Pt  tau(  14) = (   0.6666667   0.3849002   1.2739001  )
        15           Pt  tau(  15) = (   1.0000000   0.3849002   1.2739001  )
        16           Pt  tau(  16) = (   0.5000000   0.6735753   1.2739001  )
        17           Pt  tau(  17) = (   0.8333333   0.6735753   1.2739001  )
        18           Pt  tau(  18) = (   1.1666667   0.6735753   1.2739001  )
        19           Pt  tau(  19) = (   0.0006657   0.1924942   1.5414110  )
        20           Pt  tau(  20) = (   0.3327932   0.1921381   1.5417800  )
        21           Pt  tau(  21) = (   0.6665480   0.1919085   1.5414949  )
        22           Pt  tau(  22) = (   0.1669991   0.4803511   1.5457187  )
        23           Pt  tau(  23) = (   0.4994844   0.4812739   1.5415051  )
        24           Pt  tau(  24) = (   0.8341296   0.4815721   1.5414278  )
        25           Pt  tau(  25) = (   0.3355674   0.7710427   1.5477336  )
        26           Pt  tau(  26) = (   0.6670375   0.7703537   1.5414080  )
        27           Pt  tau(  27) = (   0.9996335   0.7703506   1.5455221  )
        28           Pt  tau(  28) = (  -0.0109026  -0.0062967   1.8154867  )
        29           Pt  tau(  29) = (   0.3438944  -0.0074163   1.8142617  )
        30           Pt  tau(  30) = (   0.6658913   0.0002430   1.8204588  )
        31           Pt  tau(  31) = (   0.1655160   0.3014271   1.8145348  )
        32           Pt  tau(  32) = (   0.5005527   0.2889932   1.8140928  )
        33           Pt  tau(  33) = (   0.8308272   0.2897474   1.8133286  )
        34           Pt  tau(  34) = (   0.3331715   0.5765457   1.8204635  )
        35           Pt  tau(  35) = (   0.6663402   0.5746963   1.8133581  )
        36           Pt  tau(  36) = (   0.9995670   0.5771068   1.8207720  )
        37           O   tau(  37) = (   0.1602379   0.0930608   1.9817527  )
        38           O   tau(  38) = (   0.1293388   0.0766004   2.1609138  )
        39           H   tau(  39) = (   0.2243740   0.1282139   2.2010201  )

     number of k points=    13  Marzari-Vanderbilt smearing, width (Ry)=  0.0200
                       cart. coord. in units 2pi/alat
        k(    1) = (   0.0000000   0.0000000   0.0000000), wk =   0.0800000
        k(    2) = (   0.0000000   0.2309401   0.0000000), wk =   0.1600000
        k(    3) = (   0.0000000   0.4618802   0.0000000), wk =   0.1600000
        k(    4) = (   0.2000000  -0.1154701   0.0000000), wk =   0.1600000
        k(    5) = (   0.2000000   0.1154701   0.0000000), wk =   0.1600000
        k(    6) = (   0.2000000   0.3464102   0.0000000), wk =   0.1600000
        k(    7) = (   0.2000000  -0.5773503   0.0000000), wk =   0.1600000
        k(    8) = (   0.2000000  -0.3464102   0.0000000), wk =   0.1600000
        k(    9) = (   0.4000000  -0.2309401   0.0000000), wk =   0.1600000
        k(   10) = (   0.4000000  -0.0000000   0.0000000), wk =   0.1600000
        k(   11) = (   0.4000000   0.2309401   0.0000000), wk =   0.1600000
        k(   12) = (   0.4000000  -0.6928203   0.0000000), wk =   0.1600000
        k(   13) = (   0.4000000  -0.4618802   0.0000000), wk =   0.1600000

     Dense  grid:   717331 G-vectors     FFT dimensions: (  80,  80, 256)

     Estimated max dynamical RAM per process >       8.65 GB

     Initial potential from superposition of free atoms

     starting charge  372.99388, renormalised to  373.00000

     negative rho (up, down):  1.280E-02 0.000E+00


     %%%%%%%%%%%%%%%%%%%%%%%%%%%%%%%%%%%%%%%%%%%%%%%%%%%%%%%%%%%%%%%%%%%%%%%%
     %                                                                      %
     % You are using vdW-DF, which was implemented by the Thonhauser group. %
     % Please cite the following two papers that made this development      %
     % possible and the two reviews that describe the various versions:     %
     %                                                                      %
     %   T. Thonhauser et al., PRL 115, 136402 (2015).                      %
     %   T. Thonhauser et al., PRB 76, 125112 (2007).                       %
     %   K. Berland et al., Rep. Prog. Phys. 78, 066501 (2015).             %
     %   D.C. Langreth et al., J. Phys.: Condens. Matter 21, 084203 (2009). %
     %                                                                      %
     %                                                                      %
     % If you are calculating the stress with vdW-DF, please also cite:     %
     %                                                                      %
     %   R. Sabatini et al., J. Phys.: Condens. Matter 24, 424209 (2012).   %
     %                                                                      %
     %%%%%%%%%%%%%%%%%%%%%%%%%%%%%%%%%%%%%%%%%%%%%%%%%%%%%%%%%%%%%%%%%%%%%%%%


     Starting wfcs are  333 randomized atomic wfcs
     Checking if some PAW data can be deallocated... 

     total cpu time spent up to now is      311.8 secs

     Self-consistent Calculation

     iteration #  1     ecut=    60.00 Ry     beta= 0.70
     Davidson diagonalization with overlap
     ethr =  1.00E-02,  avg # of iterations =  2.0

     Threshold (ethr) on eigenvalues was too large:
     Diagonalizing with lowered threshold

     Davidson diagonalization with overlap
     ethr =  8.61E-04,  avg # of iterations =  2.6

     negative rho (up, down):  1.732E-02 0.000E+00

     total cpu time spent up to now is     1486.9 secs

     total energy              =  -27839.71122705 Ry
     estimated scf accuracy    <       3.31440170 Ry

     iteration #  2     ecut=    60.00 Ry     beta= 0.70
     Davidson diagonalization with overlap
     ethr =  8.89E-04,  avg # of iterations =  2.0

     negative rho (up, down):  1.590E-02 0.000E+00

     total cpu time spent up to now is     2042.2 secs

     total energy              =  -27840.07836653 Ry
     estimated scf accuracy    <       1.46721924 Ry

     iteration #  3     ecut=    60.00 Ry     beta= 0.70
     Davidson diagonalization with overlap
     ethr =  3.93E-04,  avg # of iterations =  1.7

     negative rho (up, down):  1.401E-02 0.000E+00

     total cpu time spent up to now is     2574.0 secs

     total energy              =  -27840.16809402 Ry
     estimated scf accuracy    <       0.18791541 Ry

     iteration #  4     ecut=    60.00 Ry     beta= 0.70
     Davidson diagonalization with overlap
     c_bands:  3 eigenvalues not converged
     c_bands:  1 eigenvalues not converged
     c_bands:  3 eigenvalues not converged
     ethr =  5.04E-05,  avg # of iterations = 14.8

     negative rho (up, down):  1.107E-02 0.000E+00

     total cpu time spent up to now is     3510.8 secs

     total energy              =  -27840.22921230 Ry
     estimated scf accuracy    <       0.10044939 Ry

     iteration #  5     ecut=    60.00 Ry     beta= 0.70
     Davidson diagonalization with overlap
     ethr =  2.69E-05,  avg # of iterations =  2.0

     negative rho (up, down):  9.530E-03 0.000E+00

     total cpu time spent up to now is     4064.7 secs

     total energy              =  -27840.23515328 Ry
     estimated scf accuracy    <       0.01956008 Ry

     iteration #  6     ecut=    60.00 Ry     beta= 0.70
     Davidson diagonalization with overlap
     c_bands:  1 eigenvalues not converged
     c_bands:  1 eigenvalues not converged
     c_bands:  1 eigenvalues not converged
     c_bands:  1 eigenvalues not converged
     c_bands:  1 eigenvalues not converged
     c_bands:  1 eigenvalues not converged
     ethr =  5.24E-06,  avg # of iterations = 15.2

     negative rho (up, down):  8.515E-03 0.000E+00

     total cpu time spent up to now is     4816.2 secs

     total energy              =  -27840.23708244 Ry
     estimated scf accuracy    <       0.00836984 Ry

     iteration #  7     ecut=    60.00 Ry     beta= 0.70
     Davidson diagonalization with overlap
     ethr =  2.24E-06,  avg # of iterations =  4.8

     negative rho (up, down):  8.167E-03 0.000E+00

     total cpu time spent up to now is     5409.5 secs

     total energy              =  -27840.23801058 Ry
     estimated scf accuracy    <       0.00161128 Ry

     iteration #  8     ecut=    60.00 Ry     beta= 0.70
     Davidson diagonalization with overlap
     ethr =  4.32E-07,  avg # of iterations =  4.5

     negative rho (up, down):  8.182E-03 0.000E+00

     total cpu time spent up to now is     6230.4 secs

     total energy              =  -27840.23857601 Ry
     estimated scf accuracy    <       0.00053902 Ry

     iteration #  9     ecut=    60.00 Ry     beta= 0.70
     Davidson diagonalization with overlap
     ethr =  1.45E-07,  avg # of iterations =  4.0

     negative rho (up, down):  8.489E-03 0.000E+00

     total cpu time spent up to now is     6939.7 secs

     total energy              =  -27840.23870222 Ry
     estimated scf accuracy    <       0.00020973 Ry

     iteration # 10     ecut=    60.00 Ry     beta= 0.70
     Davidson diagonalization with overlap
     ethr =  5.62E-08,  avg # of iterations =  3.3

     negative rho (up, down):  8.815E-03 0.000E+00

     total cpu time spent up to now is     7575.2 secs

     total energy              =  -27840.23872578 Ry
     estimated scf accuracy    <       0.00017900 Ry

     iteration # 11     ecut=    60.00 Ry     beta= 0.70
     Davidson diagonalization with overlap
     ethr =  4.80E-08,  avg # of iterations =  1.0

     negative rho (up, down):  9.543E-03 0.000E+00

     total cpu time spent up to now is     8074.0 secs

     total energy              =  -27840.23872545 Ry
     estimated scf accuracy    <       0.00011471 Ry

     iteration # 12     ecut=    60.00 Ry     beta= 0.70
     Davidson diagonalization with overlap
     ethr =  3.08E-08,  avg # of iterations =  1.8

     negative rho (up, down):  1.031E-02 0.000E+00

     total cpu time spent up to now is     8604.2 secs

     total energy              =  -27840.23872108 Ry
     estimated scf accuracy    <       0.00008018 Ry

     iteration # 13     ecut=    60.00 Ry     beta= 0.70
     Davidson diagonalization with overlap
     ethr =  2.15E-08,  avg # of iterations =  1.4

     negative rho (up, down):  1.206E-02 0.000E+00

     total cpu time spent up to now is     9108.5 secs

     total energy              =  -27840.23871221 Ry
     estimated scf accuracy    <       0.00003928 Ry

     iteration # 14     ecut=    60.00 Ry     beta= 0.70
     Davidson diagonalization with overlap
     ethr =  1.05E-08,  avg # of iterations =  2.0

     negative rho (up, down):  1.262E-02 0.000E+00

     total cpu time spent up to now is     9685.3 secs

     total energy              =  -27840.23871531 Ry
     estimated scf accuracy    <       0.00001497 Ry

     iteration # 15     ecut=    60.00 Ry     beta= 0.70
     Davidson diagonalization with overlap
     ethr =  4.01E-09,  avg # of iterations =  2.8

     negative rho (up, down):  1.304E-02 0.000E+00

     total cpu time spent up to now is    10303.9 secs

     total energy              =  -27840.23871664 Ry
     estimated scf accuracy    <       0.00000435 Ry

     iteration # 16     ecut=    60.00 Ry     beta= 0.70
     Davidson diagonalization with overlap
     ethr =  1.17E-09,  avg # of iterations =  4.2

     negative rho (up, down):  1.307E-02 0.000E+00

     total cpu time spent up to now is    11121.8 secs

     total energy              =  -27840.23871828 Ry
     estimated scf accuracy    <       0.00000176 Ry

     iteration # 17     ecut=    60.00 Ry     beta= 0.70
     Davidson diagonalization with overlap
     ethr =  4.71E-10,  avg # of iterations =  2.3

     negative rho (up, down):  1.351E-02 0.000E+00

     total cpu time spent up to now is    11672.5 secs

     End of self-consistent calculation

          k = 0.0000 0.0000 0.0000 ( 89695 PWs)   bands (ev):

   -20.2170 -15.8164  -7.1523  -6.4382  -5.7777  -4.9411  -4.7722  -4.7441
    -4.7185  -4.7154  -4.7130  -4.7039  -4.6928  -4.5024  -4.3402  -4.1791
    -4.1782  -4.1653  -4.1472  -4.0961  -3.9893  -3.7607  -3.7141  -3.7064
    -3.6758  -3.6287  -3.5713  -3.4999  -3.4916  -3.4882  -3.4599  -3.4054
    -3.3761  -3.3168  -3.2721  -3.2667  -3.2565  -3.2424  -3.2395  -3.2307
    -3.2043  -3.1982  -3.1926  -3.0977  -3.0825  -2.7046  -2.6865  -2.6344
    -2.6178  -2.6021  -2.5826  -2.5792  -2.5678  -2.5298  -2.4633  -2.4308
    -2.3905  -2.3516  -2.3058  -2.2287  -1.8628  -1.8516  -1.8330  -1.8076
    -1.8035  -1.7488  -1.7233  -1.6630  -1.6613  -1.6299  -1.6293  -1.6083
    -1.5971  -1.5862  -1.5854  -1.5767  -1.5559  -1.5386  -1.5348  -1.5227
    -1.5215  -1.5089  -1.4063  -1.4059  -1.4030  -1.3764  -1.3719  -1.3611
    -1.2383  -1.2269  -1.2126  -1.2087  -1.2059  -1.1978  -1.1653  -1.1219
    -1.0490  -1.0413  -1.0403  -0.9746  -0.9451  -0.9342  -0.9155  -0.8980
    -0.8979  -0.8219  -0.7885  -0.7813  -0.7658  -0.7627  -0.7329  -0.7288
    -0.6262  -0.4144  -0.3148  -0.3123  -0.2954  -0.2679  -0.2616  -0.2572
    -0.2297  -0.2261  -0.1448  -0.1139  -0.1021  -0.1002  -0.0691  -0.0434
     0.0132   0.0153   0.0819   0.0911   0.1474   0.2131   0.2151   0.2239
     0.2289   0.2411   0.2791   0.4209   0.4795   0.4860   0.4865   0.4910
     0.5321   0.5423   0.5543   0.5952   0.6700   0.6772   0.6810   0.7457
     0.7538   0.7591   0.7750   0.8710   0.8795   0.9153   0.9178   0.9329
     0.9434   0.9466   0.9677   0.9734   0.9799   0.9829   1.0773   1.0799
     1.0841   1.0875   1.0922   1.1395   1.1493   1.1685   1.1718   1.1811
     1.1854   1.2284   1.2335   1.2351   1.3032   1.3042   1.3049   1.3190
     1.3384   1.3390   1.3895   1.3943   1.4189   1.4232   1.4409   1.4477
     1.4927   1.5055   1.6684   1.6694   1.7283   1.7598   1.7672   1.7685
     1.7746   1.8448   1.8552   2.6042   2.6442   2.6481   2.6516   2.8560
     2.8756   3.1256   4.6482   4.9839   4.9886   4.9895   5.1041   5.1349
     5.5326   6.3336   6.5488   6.5507   6.5605   6.5968   6.5997   6.6436

          k = 0.0000 0.2309 0.0000 ( 89626 PWs)   bands (ev):

   -20.2170 -15.8163  -7.0090  -6.4183  -5.6536  -5.2491  -4.9217  -4.8383
    -4.7698  -4.5760  -4.5601  -4.5168  -4.4807  -4.4490  -4.3244  -4.2632
    -4.1230  -4.1100  -4.0968  -4.0680  -3.9468  -3.7878  -3.6955  -3.6642
    -3.6502  -3.6166  -3.5589  -3.5502  -3.5181  -3.5035  -3.4907  -3.4317
    -3.4020  -3.3992  -3.3485  -3.2921  -3.2641  -3.2551  -3.1915  -3.1416
    -3.0719  -3.0561  -3.0378  -2.9945  -2.9672  -2.7989  -2.7523  -2.7368
    -2.7010  -2.6809  -2.6563  -2.6096  -2.5236  -2.4557  -2.4346  -2.3887
    -2.3583  -2.3349  -2.2918  -2.2332  -2.0990  -2.0085  -1.9865  -1.9440
    -1.9184  -1.8704  -1.8496  -1.8347  -1.8017  -1.7768  -1.7724  -1.7251
    -1.6911  -1.6538  -1.6199  -1.6035  -1.5881  -1.5359  -1.5139  -1.5025
    -1.4438  -1.4344  -1.4326  -1.3943  -1.3395  -1.3338  -1.3272  -1.3146
    -1.2657  -1.2470  -1.2270  -1.2136  -1.1959  -1.1386  -1.1289  -1.0996
    -1.0844  -1.0506  -1.0371  -1.0180  -0.9900  -0.9726  -0.9566  -0.9382
    -0.9035  -0.8528  -0.8325  -0.8150  -0.7737  -0.7602  -0.7233  -0.7190
    -0.6974  -0.6685  -0.6475  -0.6439  -0.5913  -0.4746  -0.3650  -0.3449
    -0.3137  -0.2759  -0.2717  -0.2215  -0.2135  -0.1968  -0.1503  -0.0709
    -0.0393   0.0317   0.0616   0.0940   0.1088   0.1205   0.1478   0.1547
     0.1569   0.2433   0.2589   0.3363   0.3424   0.3494   0.3718   0.3861
     0.4647   0.5477   0.5678   0.5797   0.5937   0.6033   0.6466   0.7050
     0.7082   0.7553   0.7611   0.7752   0.8266   0.8470   0.8533   0.8745
     0.9103   0.9587   0.9704   1.0088   1.0315   1.0747   1.1376   1.1452
     1.1599   1.1877   1.2263   1.2433   1.2750   1.2905   1.3320   1.3375
     1.3636   1.3939   1.4025   1.4114   1.4160   1.4341   1.4661   1.4734
     1.5012   1.5301   1.6240   1.6497   1.6702   1.6760   1.6960   1.7313
     1.7359   1.7635   1.7956   1.8102   1.8838   1.8878   1.9376   2.0362
     2.0455   2.0723   2.2246   2.2905   2.6290   2.6841   3.2484   3.2991
     3.3440   3.5937   4.3172   4.6402   4.7880   5.0141   5.3788   5.4382
     5.6026   5.6807   5.9917   6.3608   6.3865   6.4807   6.6977   6.7608

          k = 0.0000 0.4619 0.0000 ( 89650 PWs)   bands (ev):

   -20.2169 -15.8162  -6.6162  -6.3758  -5.9293  -5.2925  -4.9411  -4.8774
    -4.8019  -4.6449  -4.4901  -4.3693  -4.2426  -4.1885  -4.1504  -4.1378
    -4.0446  -3.9790  -3.9418  -3.9280  -3.9086  -3.8296  -3.7762  -3.7604
    -3.7456  -3.7065  -3.7000  -3.6272  -3.5863  -3.5689  -3.5533  -3.4206
    -3.3486  -3.3060  -3.2948  -3.2861  -3.2647  -3.2224  -3.0797  -3.0539
    -3.0421  -3.0300  -2.9937  -2.9389  -2.8273  -2.7815  -2.7484  -2.7154
    -2.6586  -2.6525  -2.6245  -2.5891  -2.5745  -2.5420  -2.5154  -2.4709
    -2.4371  -2.3556  -2.3475  -2.3100  -2.2647  -2.1969  -2.1620  -2.1370
    -2.1166  -2.1109  -1.9781  -1.9205  -1.9119  -1.8968  -1.8770  -1.7869
    -1.7742  -1.7686  -1.7236  -1.6546  -1.6428  -1.5849  -1.5509  -1.5333
    -1.5149  -1.5096  -1.4757  -1.4383  -1.4262  -1.4210  -1.3972  -1.3927
    -1.3761  -1.3593  -1.3280  -1.2711  -1.2534  -1.2374  -1.2196  -1.2072
    -1.1703  -1.1366  -1.1050  -1.0731  -1.0277  -1.0088  -0.9688  -0.9397
    -0.9339  -0.9009  -0.8823  -0.8671  -0.8013  -0.7563  -0.7481  -0.7009
    -0.6753  -0.6264  -0.5415  -0.5064  -0.4780  -0.4493  -0.4012  -0.3750
    -0.3361  -0.3148  -0.3028  -0.2789  -0.2575  -0.2382  -0.2050  -0.1897
    -0.1728  -0.1570  -0.1442  -0.1257  -0.0927  -0.0459  -0.0086   0.0199
     0.0540   0.0763   0.1554   0.1805   0.2466   0.2678   0.3288   0.3549
     0.4076   0.4567   0.5088   0.5509   0.5634   0.6092   0.6163   0.6267
     0.6675   0.6870   0.7181   0.7469   0.7899   0.8092   0.8590   0.8628
     0.8954   0.9234   0.9329   0.9753   1.0820   1.1074   1.1457   1.1747
     1.1904   1.2423   1.2614   1.2957   1.3127   1.3433   1.3724   1.4292
     1.4519   1.4608   1.4961   1.5407   1.5553   1.6138   1.6369   1.6421
     1.6493   1.6847   1.6900   1.7134   1.7804   1.8439   1.8626   1.9065
     1.9090   1.9811   1.9924   2.0811   2.1432   2.5572   2.6255   2.6681
     2.9008   2.9550   2.9927   3.3366   3.4001   3.6299   3.6778   4.0573
     4.1591   4.1896   4.3599   4.4196   4.4454   4.6160   4.6784   4.8508
     4.8577   5.2802   5.5115   5.6367   6.0106   6.2120   6.5162   6.5680

          k = 0.2000-0.1155 0.0000 ( 89626 PWs)   bands (ev):

   -20.2170 -15.8163  -7.0090  -6.4183  -5.6536  -5.2492  -4.9209  -4.8384
    -4.7711  -4.5759  -4.5595  -4.5171  -4.4803  -4.4491  -4.3231  -4.2632
    -4.1275  -4.1102  -4.0962  -4.0674  -3.9444  -3.7886  -3.6953  -3.6639
    -3.6500  -3.6171  -3.5600  -3.5504  -3.5165  -3.5039  -3.4908  -3.4320
    -3.4026  -3.3982  -3.3486  -3.2919  -3.2642  -3.2550  -3.1907  -3.1434
    -3.0695  -3.0565  -3.0363  -2.9938  -2.9675  -2.7992  -2.7550  -2.7369
    -2.7004  -2.6803  -2.6558  -2.6098  -2.5234  -2.4549  -2.4343  -2.3884
    -2.3592  -2.3346  -2.2921  -2.2345  -2.0991  -2.0085  -1.9866  -1.9441
    -1.9195  -1.8701  -1.8493  -1.8347  -1.8012  -1.7766  -1.7727  -1.7253
    -1.6907  -1.6538  -1.6197  -1.6033  -1.5882  -1.5359  -1.5139  -1.5021
    -1.4437  -1.4348  -1.4330  -1.3939  -1.3391  -1.3337  -1.3273  -1.3148
    -1.2671  -1.2465  -1.2266  -1.2130  -1.1949  -1.1389  -1.1287  -1.0995
    -1.0843  -1.0513  -1.0383  -1.0178  -0.9905  -0.9717  -0.9565  -0.9382
    -0.9038  -0.8524  -0.8335  -0.8136  -0.7739  -0.7601  -0.7237  -0.7190
    -0.6978  -0.6687  -0.6478  -0.6437  -0.5910  -0.4739  -0.3664  -0.3447
    -0.3139  -0.2751  -0.2710  -0.2209  -0.2134  -0.1970  -0.1505  -0.0741
    -0.0412   0.0332   0.0621   0.0940   0.1089   0.1206   0.1475   0.1546
     0.1573   0.2432   0.2584   0.3366   0.3426   0.3502   0.3717   0.3862
     0.4650   0.5477   0.5680   0.5797   0.5934   0.6033   0.6466   0.7046
     0.7082   0.7554   0.7609   0.7754   0.8269   0.8469   0.8531   0.8747
     0.9097   0.9586   0.9709   1.0084   1.0320   1.0743   1.1377   1.1453
     1.1599   1.1881   1.2259   1.2441   1.2752   1.2904   1.3321   1.3372
     1.3637   1.3940   1.4024   1.4115   1.4160   1.4347   1.4657   1.4753
     1.5018   1.5292   1.6238   1.6501   1.6704   1.6755   1.6960   1.7309
     1.7356   1.7636   1.7940   1.8108   1.8840   1.8880   1.9394   2.0362
     2.0456   2.0721   2.2219   2.2915   2.6308   2.6833   3.2483   3.2998
     3.3440   3.5926   4.3176   4.6396   4.7892   5.0134   5.3789   5.4383
     5.6035   5.6793   5.9922   6.3607   6.3866   6.4817   6.6981   6.7609

          k = 0.2000 0.1155 0.0000 ( 89626 PWs)   bands (ev):

   -20.2170 -15.8163  -7.0095  -6.4197  -5.6528  -5.2391  -4.9084  -4.8648
    -4.7666  -4.5741  -4.5302  -4.5160  -4.5120  -4.4109  -4.2875  -4.2716
    -4.2519  -4.1096  -4.0909  -4.0263  -3.9133  -3.8024  -3.7109  -3.6581
    -3.6506  -3.6497  -3.5734  -3.5445  -3.5007  -3.4987  -3.4745  -3.4281
    -3.4241  -3.3896  -3.3611  -3.2937  -3.2673  -3.2553  -3.1884  -3.1541
    -3.0630  -3.0545  -3.0071  -2.9775  -2.9655  -2.7923  -2.7807  -2.7338
    -2.6951  -2.6664  -2.6506  -2.6169  -2.4999  -2.4825  -2.4234  -2.3852
    -2.3832  -2.3196  -2.3069  -2.2476  -2.0985  -2.0085  -1.9845  -1.9374
    -1.9340  -1.8750  -1.8459  -1.8341  -1.7977  -1.7743  -1.7706  -1.7241
    -1.6838  -1.6538  -1.6205  -1.6137  -1.5867  -1.5346  -1.5129  -1.4992
    -1.4471  -1.4441  -1.4328  -1.3904  -1.3400  -1.3392  -1.3229  -1.3211
    -1.2783  -1.2499  -1.2250  -1.2042  -1.1671  -1.1379  -1.1215  -1.1013
    -1.0850  -1.0676  -1.0450  -1.0113  -0.9966  -0.9629  -0.9511  -0.9446
    -0.9026  -0.8491  -0.8365  -0.7841  -0.7734  -0.7538  -0.7356  -0.7198
    -0.7056  -0.6700  -0.6491  -0.6430  -0.5583  -0.4790  -0.3977  -0.3457
    -0.3380  -0.2699  -0.2501  -0.2252  -0.2114  -0.2006  -0.1179  -0.1113
    -0.0486   0.0373   0.0671   0.0903   0.1163   0.1232   0.1441   0.1539
     0.1682   0.2576   0.2656   0.3377   0.3425   0.3689   0.3755   0.3816
     0.4304   0.5564   0.5738   0.5793   0.5992   0.6031   0.6491   0.6778
     0.7099   0.7557   0.7645   0.7796   0.8324   0.8448   0.8658   0.8691
     0.9104   0.9627   0.9636   1.0139   1.0224   1.0767   1.1400   1.1427
     1.1577   1.1833   1.2143   1.2442   1.2783   1.2880   1.3331   1.3384
     1.3650   1.3941   1.3987   1.4089   1.4161   1.4263   1.4445   1.4720
     1.5018   1.5364   1.6268   1.6458   1.6694   1.6782   1.6956   1.7303
     1.7399   1.7619   1.7915   1.8134   1.8852   1.8876   1.9495   2.0385
     2.0469   2.0738   2.2199   2.2933   2.6523   2.6587   3.2541   3.3037
     3.3374   3.5952   4.3051   4.6731   4.7743   4.9981   5.3792   5.4370
     5.5982   5.6812   6.0107   6.3662   6.3672   6.4856   6.7306   6.7613

          k = 0.2000 0.3464 0.0000 ( 89608 PWs)   bands (ev):

   -20.2169 -15.8162  -6.7386  -6.3904  -5.5069  -5.4824  -5.3859  -4.7949
    -4.4955  -4.4039  -4.3948  -4.3800  -4.3514  -4.3223  -4.3081  -4.2351
    -4.2136  -4.1791  -4.0284  -3.8325  -3.8219  -3.8129  -3.7823  -3.7411
    -3.7205  -3.6217  -3.5876  -3.5694  -3.5604  -3.4915  -3.4524  -3.4257
    -3.4100  -3.3869  -3.3477  -3.3358  -3.2914  -3.2720  -3.2261  -3.1688
    -3.1440  -2.9240  -2.8741  -2.8385  -2.8014  -2.7815  -2.7672  -2.7412
    -2.6976  -2.6898  -2.6659  -2.5748  -2.5269  -2.4945  -2.4556  -2.4187
    -2.3911  -2.3541  -2.3253  -2.3194  -2.2655  -2.2379  -2.0841  -2.0659
    -2.0449  -2.0008  -1.9712  -1.9471  -1.9242  -1.9098  -1.8676  -1.8408
    -1.7153  -1.7026  -1.6812  -1.6663  -1.6443  -1.6255  -1.5889  -1.5485
    -1.5347  -1.4908  -1.4177  -1.4023  -1.3842  -1.3745  -1.3514  -1.3409
    -1.3342  -1.3051  -1.2887  -1.2563  -1.2392  -1.1906  -1.1488  -1.1297
    -1.1119  -1.0625  -1.0471  -1.0298  -1.0171  -0.9832  -0.9665  -0.9551
    -0.9381  -0.9276  -0.9197  -0.8817  -0.8634  -0.8421  -0.8004  -0.7500
    -0.7282  -0.6869  -0.6475  -0.6212  -0.6050  -0.5366  -0.5134  -0.4069
    -0.3988  -0.3309  -0.2695  -0.2489  -0.2352  -0.2174  -0.1831  -0.1614
    -0.1417  -0.1223  -0.1052  -0.0802  -0.0205  -0.0004   0.0617   0.1021
     0.1452   0.1776   0.1992   0.2508   0.2701   0.3134   0.3357   0.4039
     0.4306   0.4590   0.4780   0.4962   0.5491   0.6048   0.6271   0.6665
     0.6780   0.7095   0.7199   0.7406   0.7457   0.7666   0.7852   0.7977
     0.8272   0.9224   0.9357   1.0292   1.0907   1.1226   1.1591   1.2188
     1.2803   1.3013   1.3041   1.3597   1.3949   1.4294   1.4462   1.4548
     1.4674   1.4888   1.4978   1.5061   1.5406   1.5603   1.5914   1.6191
     1.6362   1.6889   1.7034   1.7210   1.7351   1.7852   1.8327   1.9109
     1.9385   1.9885   2.0102   2.0467   2.1281   2.1543   2.2395   2.2823
     2.6710   2.7311   2.7961   3.2176   3.2627   3.3619   3.4370   3.9938
     4.0636   4.1052   4.1586   4.2246   4.2603   4.8540   5.0916   5.3746
     5.4776   5.6033   5.7003   6.1023   6.1391   6.2146   6.2616   6.3132

          k = 0.2000-0.5774 0.0000 ( 89636 PWs)   bands (ev):

   -20.2169 -15.8162  -6.4585  -6.1775  -6.1223  -5.5675  -5.0186  -4.9221
    -4.6919  -4.4296  -4.3706  -4.2928  -4.2411  -4.1453  -4.1149  -4.0784
    -4.0145  -3.9909  -3.9070  -3.8746  -3.8549  -3.8482  -3.8407  -3.7836
    -3.7457  -3.6852  -3.6698  -3.6593  -3.6410  -3.6352  -3.4953  -3.4358
    -3.3956  -3.3264  -3.3171  -3.2947  -3.2703  -3.2342  -3.1946  -3.1442
    -3.0866  -3.0309  -3.0162  -2.8696  -2.8460  -2.7959  -2.7483  -2.7057
    -2.6551  -2.6258  -2.5702  -2.5163  -2.4937  -2.4332  -2.4103  -2.4041
    -2.3728  -2.3293  -2.3158  -2.2452  -2.2348  -2.2186  -2.2005  -2.1910
    -2.1702  -2.1325  -2.1168  -2.0824  -1.9890  -1.9590  -1.9116  -1.9053
    -1.8269  -1.7668  -1.7495  -1.7407  -1.7121  -1.7010  -1.6548  -1.6334
    -1.5994  -1.5621  -1.5145  -1.4834  -1.4769  -1.4562  -1.3812  -1.3474
    -1.3241  -1.3169  -1.3022  -1.2569  -1.2185  -1.1791  -1.1435  -1.1140
    -1.0970  -1.0811  -1.0523  -1.0452  -1.0308  -1.0130  -0.9799  -0.9695
    -0.9428  -0.9319  -0.9159  -0.9001  -0.8910  -0.8691  -0.8425  -0.8230
    -0.8010  -0.7401  -0.6939  -0.5947  -0.5646  -0.5008  -0.4879  -0.4281
    -0.3972  -0.3449  -0.3347  -0.2982  -0.2807  -0.2599  -0.2522  -0.2169
    -0.1777  -0.1625  -0.1327  -0.0845  -0.0255  -0.0073   0.0079   0.0460
     0.0776   0.1391   0.2177   0.2562   0.2661   0.3217   0.3400   0.3669
     0.3945   0.4199   0.4386   0.4549   0.4660   0.5298   0.5685   0.5816
     0.6013   0.6532   0.6639   0.6849   0.7234   0.7728   0.7998   0.8660
     0.8840   0.9680   1.0089   1.0663   1.1270   1.1377   1.1848   1.2125
     1.2435   1.2602   1.3142   1.3919   1.4174   1.4320   1.4730   1.4796
     1.4986   1.5291   1.5538   1.5885   1.6057   1.6395   1.6518   1.6856
     1.7059   1.7171   1.7636   1.7924   1.8648   1.8906   1.9074   1.9169
     1.9528   1.9838   2.0059   2.1035   2.2128   2.2921   3.0571   3.0611
     3.3136   3.3273   3.4076   3.4635   3.5164   3.5634   3.9935   4.0388
     4.0809   4.2690   4.5458   4.5764   4.6612   4.7273   4.8425   4.9524
     5.0803   5.1527   5.2501   5.4613   5.5809   5.8871   6.0855   6.1687

          k = 0.2000-0.3464 0.0000 ( 89608 PWs)   bands (ev):

   -20.2169 -15.8162  -6.7364  -6.3903  -5.5044  -5.4900  -5.3883  -4.8062
    -4.5204  -4.4032  -4.3951  -4.3811  -4.3293  -4.3278  -4.3079  -4.2438
    -4.2208  -4.1541  -3.9644  -3.8471  -3.8241  -3.8118  -3.8055  -3.7595
    -3.7291  -3.5983  -3.5895  -3.5617  -3.5194  -3.4984  -3.4466  -3.4332
    -3.4248  -3.3795  -3.3371  -3.3085  -3.3049  -3.2670  -3.2368  -3.1920
    -3.1254  -2.9580  -2.8874  -2.8352  -2.8158  -2.7814  -2.7603  -2.7423
    -2.7361  -2.6916  -2.6636  -2.5713  -2.5257  -2.4883  -2.4707  -2.4050
    -2.3783  -2.3468  -2.3242  -2.2912  -2.2661  -2.2343  -2.0826  -2.0771
    -2.0446  -1.9968  -1.9711  -1.9415  -1.9254  -1.9191  -1.8718  -1.8492
    -1.7134  -1.7009  -1.6799  -1.6615  -1.6440  -1.6210  -1.5753  -1.5596
    -1.5359  -1.4885  -1.4174  -1.3956  -1.3860  -1.3735  -1.3507  -1.3388
    -1.3272  -1.3022  -1.2899  -1.2589  -1.2472  -1.1951  -1.1473  -1.1239
    -1.1113  -1.0829  -1.0503  -1.0240  -1.0161  -0.9868  -0.9699  -0.9657
    -0.9477  -0.9302  -0.9155  -0.8824  -0.8686  -0.8321  -0.7932  -0.7450
    -0.7100  -0.6986  -0.6815  -0.6131  -0.6015  -0.5598  -0.4963  -0.4230
    -0.4010  -0.3273  -0.2730  -0.2446  -0.2270  -0.2161  -0.1794  -0.1606
    -0.1442  -0.1145  -0.0904  -0.0782  -0.0403   0.0146   0.0638   0.1026
     0.1436   0.1651   0.1992   0.2367   0.2814   0.3134   0.3383   0.4066
     0.4353   0.4634   0.4776   0.4920   0.5462   0.5988   0.6239   0.6701
     0.6803   0.7071   0.7229   0.7370   0.7480   0.7674   0.7832   0.7917
     0.8337   0.8923   0.9404   1.0394   1.0913   1.1409   1.1530   1.2303
     1.2831   1.2947   1.3050   1.3699   1.3966   1.4322   1.4460   1.4561
     1.4635   1.4879   1.4983   1.5097   1.5418   1.5602   1.5920   1.6140
     1.6352   1.6900   1.7076   1.7197   1.7385   1.7557   1.8368   1.9128
     1.9422   1.9891   2.0130   2.0467   2.1103   2.1565   2.2553   2.3073
     2.6686   2.7338   2.7876   3.2235   3.2573   3.3721   3.4147   4.0017
     4.0489   4.1048   4.1795   4.2144   4.2727   4.8518   5.0755   5.3733
     5.4919   5.5959   5.7148   6.1084   6.1271   6.2121   6.2303   6.3619

          k = 0.4000-0.2309 0.0000 ( 89650 PWs)   bands (ev):

   -20.2169 -15.8162  -6.6162  -6.3758  -5.9292  -5.2926  -4.9408  -4.8775
    -4.8036  -4.6431  -4.4895  -4.3686  -4.2443  -4.1887  -4.1501  -4.1375
    -4.0497  -3.9767  -3.9423  -3.9274  -3.9083  -3.8283  -3.7760  -3.7605
    -3.7465  -3.7049  -3.6992  -3.6272  -3.5870  -3.5683  -3.5534  -3.4275
    -3.3444  -3.3063  -3.2949  -3.2850  -3.2624  -3.2222  -3.0790  -3.0539
    -3.0416  -3.0285  -2.9935  -2.9392  -2.8306  -2.7798  -2.7485  -2.7138
    -2.6592  -2.6522  -2.6249  -2.5884  -2.5743  -2.5426  -2.5153  -2.4716
    -2.4350  -2.3559  -2.3471  -2.3104  -2.2675  -2.1970  -2.1620  -2.1365
    -2.1178  -2.1113  -1.9781  -1.9202  -1.9120  -1.8962  -1.8766  -1.7880
    -1.7741  -1.7686  -1.7265  -1.6544  -1.6433  -1.5844  -1.5510  -1.5327
    -1.5145  -1.5092  -1.4753  -1.4381  -1.4265  -1.4208  -1.3971  -1.3925
    -1.3766  -1.3588  -1.3276  -1.2714  -1.2538  -1.2379  -1.2195  -1.2061
    -1.1704  -1.1390  -1.1039  -1.0730  -1.0266  -1.0091  -0.9672  -0.9402
    -0.9341  -0.9014  -0.8814  -0.8667  -0.8021  -0.7571  -0.7481  -0.7001
    -0.6750  -0.6275  -0.5424  -0.5057  -0.4780  -0.4500  -0.4010  -0.3753
    -0.3361  -0.3149  -0.3030  -0.2791  -0.2574  -0.2383  -0.2052  -0.1900
    -0.1721  -0.1571  -0.1443  -0.1259  -0.0925  -0.0453  -0.0086   0.0197
     0.0531   0.0765   0.1553   0.1797   0.2464   0.2687   0.3290   0.3550
     0.4069   0.4564   0.5088   0.5510   0.5637   0.6089   0.6162   0.6268
     0.6670   0.6871   0.7180   0.7468   0.7891   0.8093   0.8593   0.8630
     0.8952   0.9235   0.9329   0.9755   1.0808   1.1069   1.1457   1.1749
     1.1908   1.2421   1.2630   1.2955   1.3128   1.3437   1.3721   1.4298
     1.4518   1.4610   1.4959   1.5412   1.5554   1.6135   1.6370   1.6421
     1.6493   1.6847   1.6902   1.7128   1.7818   1.8429   1.8627   1.9065
     1.9088   1.9822   1.9922   2.0820   2.1434   2.5573   2.6259   2.6687
     2.9007   2.9551   2.9925   3.3368   3.3995   3.6302   3.6773   4.0575
     4.1590   4.1897   4.3602   4.4200   4.4454   4.6154   4.6793   4.8505
     4.8577   5.2792   5.5116   5.6373   6.0105   6.2127   6.5157   6.5683

          k = 0.4000-0.0000 0.0000 ( 89608 PWs)   bands (ev):

   -20.2169 -15.8162  -6.7386  -6.3904  -5.5069  -5.4824  -5.3859  -4.7953
    -4.4948  -4.4035  -4.3949  -4.3801  -4.3517  -4.3224  -4.3081  -4.2353
    -4.2138  -4.1777  -4.0320  -3.8325  -3.8217  -3.8130  -3.7820  -3.7405
    -3.7194  -3.6225  -3.5875  -3.5694  -3.5605  -3.4917  -3.4526  -3.4255
    -3.4095  -3.3865  -3.3488  -3.3359  -3.2906  -3.2727  -3.2249  -3.1687
    -3.1417  -2.9226  -2.8752  -2.8385  -2.8006  -2.7818  -2.7680  -2.7412
    -2.6963  -2.6890  -2.6662  -2.5754  -2.5268  -2.4960  -2.4529  -2.4204
    -2.3926  -2.3543  -2.3255  -2.3210  -2.2651  -2.2384  -2.0843  -2.0657
    -2.0449  -2.0012  -1.9711  -1.9469  -1.9241  -1.9093  -1.8674  -1.8404
    -1.7153  -1.7026  -1.6811  -1.6659  -1.6451  -1.6256  -1.5895  -1.5481
    -1.5340  -1.4908  -1.4168  -1.4025  -1.3843  -1.3746  -1.3514  -1.3407
    -1.3345  -1.3049  -1.2887  -1.2566  -1.2392  -1.1906  -1.1489  -1.1300
    -1.1123  -1.0615  -1.0476  -1.0293  -1.0175  -0.9829  -0.9665  -0.9550
    -0.9379  -0.9277  -0.9206  -0.8817  -0.8630  -0.8435  -0.8003  -0.7508
    -0.7290  -0.6871  -0.6456  -0.6223  -0.6051  -0.5358  -0.5131  -0.4062
    -0.3989  -0.3297  -0.2696  -0.2491  -0.2357  -0.2172  -0.1834  -0.1613
    -0.1423  -0.1219  -0.1059  -0.0803  -0.0198  -0.0007   0.0615   0.1021
     0.1455   0.1776   0.1992   0.2511   0.2691   0.3135   0.3363   0.4038
     0.4308   0.4584   0.4779   0.4960   0.5490   0.6042   0.6267   0.6667
     0.6784   0.7094   0.7200   0.7403   0.7455   0.7667   0.7852   0.7978
     0.8263   0.9235   0.9359   1.0292   1.0909   1.1231   1.1587   1.2187
     1.2805   1.3013   1.3038   1.3604   1.3952   1.4292   1.4463   1.4549
     1.4673   1.4888   1.4979   1.5060   1.5407   1.5603   1.5910   1.6190
     1.6360   1.6892   1.7033   1.7206   1.7354   1.7848   1.8322   1.9112
     1.9387   1.9887   2.0101   2.0468   2.1279   2.1542   2.2425   2.2817
     2.6713   2.7312   2.7957   3.2179   3.2624   3.3628   3.4357   3.9941
     4.0630   4.1049   4.1589   4.2244   4.2611   4.8542   5.0918   5.3744
     5.4783   5.6023   5.6990   6.1017   6.1417   6.2139   6.2601   6.3123

          k = 0.4000 0.2309 0.0000 ( 89650 PWs)   bands (ev):

   -20.2169 -15.8162  -6.6215  -6.3765  -5.9218  -5.2858  -4.9239  -4.9004
    -4.7830  -4.6195  -4.4945  -4.3434  -4.2673  -4.2048  -4.1759  -4.1167
    -4.1150  -3.9496  -3.9427  -3.9221  -3.9003  -3.8099  -3.7783  -3.7555
    -3.7523  -3.7072  -3.6850  -3.6454  -3.6172  -3.5606  -3.5531  -3.5509
    -3.3262  -3.3069  -3.2942  -3.2774  -3.2249  -3.2133  -3.0724  -3.0520
    -3.0396  -2.9972  -2.9487  -2.9448  -2.8580  -2.7551  -2.7505  -2.6759
    -2.6667  -2.6521  -2.6335  -2.5876  -2.5566  -2.5517  -2.5047  -2.4792
    -2.4434  -2.3593  -2.3460  -2.3178  -2.2962  -2.1963  -2.1561  -2.1318
    -2.1301  -2.1140  -1.9735  -1.9237  -1.9141  -1.9041  -1.8686  -1.8044
    -1.7704  -1.7659  -1.7504  -1.6498  -1.6414  -1.5822  -1.5517  -1.5244
    -1.5174  -1.5064  -1.4690  -1.4383  -1.4378  -1.4233  -1.3989  -1.3921
    -1.3855  -1.3578  -1.3281  -1.2671  -1.2544  -1.2420  -1.2180  -1.1940
    -1.1726  -1.1587  -1.0852  -1.0777  -1.0182  -1.0056  -0.9436  -0.9379
    -0.9157  -0.9087  -0.8672  -0.8479  -0.8360  -0.7595  -0.7388  -0.6882
    -0.6695  -0.6227  -0.5516  -0.4925  -0.4826  -0.4571  -0.4068  -0.3712
    -0.3495  -0.3119  -0.2973  -0.2958  -0.2445  -0.2438  -0.2003  -0.1904
    -0.1612  -0.1584  -0.1463  -0.1290  -0.0977  -0.0253   0.0122   0.0215
     0.0320   0.0856   0.1348   0.1693   0.2431   0.2926   0.3311   0.3555
     0.3980   0.4494   0.5204   0.5567   0.5602   0.6136   0.6155   0.6243
     0.6650   0.6763   0.7204   0.7422   0.7952   0.8148   0.8604   0.8614
     0.9021   0.9264   0.9377   0.9654   1.0822   1.1122   1.1462   1.1685
     1.1839   1.2288   1.2684   1.2968   1.3095   1.3374   1.3758   1.4200
     1.4499   1.4641   1.5008   1.5298   1.5482   1.6092   1.6367   1.6417
     1.6471   1.6837   1.6870   1.7065   1.7906   1.8597   1.8600   1.9061
     1.9119   1.9620   1.9861   2.0829   2.1437   2.5540   2.6511   2.6538
     2.9031   2.9571   2.9897   3.3384   3.4028   3.6207   3.6875   4.0573
     4.1594   4.1858   4.3686   4.4064   4.4402   4.6242   4.6620   4.8537
     4.8664   5.2725   5.5071   5.6528   6.0110   6.2310   6.5426   6.5498

          k = 0.4000-0.6928 0.0000 ( 89636 PWs)   bands (ev):

   -20.2169 -15.8162  -6.4668  -6.1770  -6.1116  -5.5722  -5.0193  -4.8960
    -4.6805  -4.4558  -4.3915  -4.2644  -4.2394  -4.1532  -4.1176  -4.0806
    -4.0107  -3.9546  -3.9240  -3.8870  -3.8603  -3.8455  -3.8382  -3.8199
    -3.7609  -3.6858  -3.6649  -3.6506  -3.6385  -3.5914  -3.5738  -3.4684
    -3.4058  -3.3402  -3.3117  -3.2883  -3.2535  -3.1969  -3.1850  -3.1015
    -3.0896  -3.0333  -3.0158  -2.8649  -2.8344  -2.8255  -2.7322  -2.6864
    -2.6572  -2.6259  -2.5630  -2.5187  -2.4863  -2.4628  -2.4269  -2.4079
    -2.3517  -2.3356  -2.3068  -2.2443  -2.2308  -2.2165  -2.1971  -2.1857
    -2.1691  -2.1467  -2.1135  -2.0905  -1.9946  -1.9632  -1.9125  -1.9051
    -1.8369  -1.7673  -1.7536  -1.7463  -1.7271  -1.7027  -1.6571  -1.6336
    -1.5728  -1.5616  -1.5169  -1.4810  -1.4648  -1.4507  -1.3880  -1.3462
    -1.3260  -1.3221  -1.3128  -1.2484  -1.2221  -1.1770  -1.1447  -1.1159
    -1.0942  -1.0758  -1.0569  -1.0446  -1.0395  -1.0160  -0.9729  -0.9565
    -0.9374  -0.9313  -0.9126  -0.8994  -0.8937  -0.8712  -0.8434  -0.8229
    -0.8004  -0.7254  -0.6858  -0.5893  -0.5656  -0.5116  -0.4766  -0.4166
    -0.3995  -0.3592  -0.3440  -0.2990  -0.2793  -0.2632  -0.2453  -0.2277
    -0.1727  -0.1545  -0.1311  -0.0814  -0.0542   0.0003   0.0090   0.0286
     0.0748   0.1955   0.2110   0.2570   0.2656   0.3188   0.3341   0.3717
     0.3861   0.4191   0.4409   0.4556   0.4625   0.5384   0.5724   0.5772
     0.6031   0.6532   0.6601   0.6847   0.7254   0.7615   0.8216   0.8400
     0.8947   0.9685   1.0057   1.0634   1.1262   1.1370   1.1676   1.2103
     1.2456   1.2605   1.3168   1.3796   1.4202   1.4329   1.4758   1.4841
     1.5005   1.5270   1.5604   1.5825   1.6042   1.6389   1.6512   1.6850
     1.7074   1.7199   1.7603   1.7834   1.8714   1.8986   1.9055   1.9284
     1.9489   2.0027   2.0096   2.0994   2.1964   2.2700   3.0572   3.0617
     3.3267   3.3341   3.4050   3.4595   3.5197   3.5537   3.9978   4.0283
     4.0812   4.2691   4.5532   4.5763   4.6601   4.7316   4.8335   4.9536
     5.0855   5.1241   5.2757   5.4507   5.5926   5.9039   6.0666   6.1704

          k = 0.4000-0.4619 0.0000 ( 89636 PWs)   bands (ev):

   -20.2169 -15.8162  -6.4586  -6.1775  -6.1222  -5.5676  -5.0204  -4.9204
    -4.6908  -4.4319  -4.3710  -4.2909  -4.2410  -4.1457  -4.1149  -4.0798
    -4.0144  -3.9892  -3.9072  -3.8749  -3.8546  -3.8483  -3.8409  -3.7861
    -3.7464  -3.6848  -3.6686  -3.6587  -3.6401  -3.6343  -3.4965  -3.4379
    -3.3964  -3.3257  -3.3176  -3.2925  -3.2691  -3.2322  -3.1947  -3.1436
    -3.0870  -3.0310  -3.0159  -2.8696  -2.8457  -2.7987  -2.7467  -2.7051
    -2.6557  -2.6258  -2.5689  -2.5163  -2.4940  -2.4333  -2.4103  -2.4049
    -2.3712  -2.3294  -2.3160  -2.2450  -2.2354  -2.2185  -2.2013  -2.1908
    -2.1704  -2.1342  -2.1155  -2.0828  -1.9885  -1.9598  -1.9119  -1.9051
    -1.8277  -1.7667  -1.7497  -1.7410  -1.7129  -1.7013  -1.6552  -1.6339
    -1.5966  -1.5623  -1.5144  -1.4832  -1.4766  -1.4560  -1.3809  -1.3477
    -1.3240  -1.3171  -1.3022  -1.2580  -1.2183  -1.1792  -1.1434  -1.1144
    -1.0972  -1.0814  -1.0523  -1.0453  -1.0312  -1.0135  -0.9790  -0.9688
    -0.9425  -0.9319  -0.9159  -0.9001  -0.8908  -0.8692  -0.8428  -0.8232
    -0.8006  -0.7403  -0.6938  -0.5949  -0.5642  -0.5010  -0.4876  -0.4275
    -0.3969  -0.3454  -0.3363  -0.2975  -0.2806  -0.2593  -0.2519  -0.2174
    -0.1766  -0.1623  -0.1328  -0.0849  -0.0273  -0.0066   0.0079   0.0444
     0.0777   0.1410   0.2175   0.2562   0.2661   0.3216   0.3400   0.3667
     0.3939   0.4200   0.4386   0.4549   0.4659   0.5286   0.5682   0.5819
     0.6011   0.6529   0.6639   0.6849   0.7234   0.7720   0.8007   0.8659
     0.8859   0.9678   1.0086   1.0653   1.1271   1.1375   1.1860   1.2126
     1.2437   1.2601   1.3139   1.3923   1.4173   1.4319   1.4730   1.4796
     1.4986   1.5290   1.5539   1.5885   1.6061   1.6397   1.6519   1.6856
     1.7060   1.7168   1.7637   1.7932   1.8637   1.8902   1.9076   1.9162
     1.9527   1.9830   2.0062   2.1036   2.2154   2.2928   3.0571   3.0610
     3.3125   3.3270   3.4079   3.4642   3.5150   3.5649   3.9936   4.0391
     4.0810   4.2690   4.5456   4.5765   4.6615   4.7269   4.8429   4.9522
     5.0790   5.1543   5.2496   5.4617   5.5807   5.8876   6.0839   6.1687

     the Fermi energy is     1.6916 ev

!    total energy              =  -27840.23871695 Ry

     total all-electron energy =  -1326944.697924 Ry
     estimated scf accuracy    <       0.00000077 Ry
     smearing contrib. (-TS)   =       0.00218691 Ry
     internal energy E=F+TS    =  -27840.24090385 Ry

     The total energy is F=E-TS. E is the sum of the following terms:
     one-electron contribution =  -27614.57903949 Ry
     hartree contribution      =   14109.46173394 Ry
     xc contribution           =    -906.07440695 Ry
     ewald contribution        =   12065.23635697 Ry
     one-center paw contrib.   =  -25494.28554832 Ry

     convergence has been achieved in  17 iterations

     negative rho (up, down):  1.351E-02 0.000E+00

     Forces acting on atoms (cartesian axes, Ry/au):

     atom    1 type  1   force =    -0.00065081   -0.00034378   -0.00308699
     atom    2 type  1   force =     0.00059525   -0.00031263   -0.00306070
     atom    3 type  1   force =     0.00005422   -0.00005037   -0.00498157
     atom    4 type  1   force =     0.00000064    0.00068666   -0.00303772
     atom    5 type  1   force =     0.00091388    0.00050710   -0.00377737
     atom    6 type  1   force =    -0.00094785    0.00066543   -0.00407904
     atom    7 type  1   force =    -0.00012169    0.00010253   -0.00488746
     atom    8 type  1   force =     0.00012360   -0.00116438   -0.00406901
     atom    9 type  1   force =    -0.00072033   -0.00043815   -0.00589471
     atom   10 type  1   force =     0.00038444    0.00025348    0.00080967
     atom   11 type  1   force =     0.00100953   -0.00139973    0.00198260
     atom   12 type  1   force =    -0.00108837   -0.00235153    0.00242461
     atom   13 type  1   force =    -0.00077741    0.00159072    0.00210754
     atom   14 type  1   force =     0.00013092    0.00005073   -0.00031705
     atom   15 type  1   force =     0.00117853    0.00220022    0.00132821
     atom   16 type  1   force =    -0.00258017    0.00020707    0.00244579
     atom   17 type  1   force =     0.00244951   -0.00014880    0.00123835
     atom   18 type  1   force =     0.00112265    0.00056230    0.02193885
     atom   19 type  1   force =    -0.00011743   -0.00016441    0.00016735
     atom   20 type  1   force =    -0.00009269   -0.00009257    0.00011563
     atom   21 type  1   force =     0.00002592   -0.00012594    0.00024836
     atom   22 type  1   force =    -0.00009876    0.00016763   -0.00004313
     atom   23 type  1   force =    -0.00006377    0.00006707    0.00024778
     atom   24 type  1   force =    -0.00008446   -0.00005046    0.00022393
     atom   25 type  1   force =    -0.00012823   -0.00005454    0.00013261
     atom   26 type  1   force =    -0.00016913   -0.00002135    0.00014859
     atom   27 type  1   force =     0.00009987   -0.00014328   -0.00005755
     atom   28 type  1   force =     0.00004153    0.00002030   -0.00008172
     atom   29 type  1   force =    -0.00039794    0.00019055    0.00009669
     atom   30 type  1   force =     0.00026837   -0.00001466    0.00042463
     atom   31 type  1   force =    -0.00003185   -0.00045914    0.00010302
     atom   32 type  1   force =    -0.00015886   -0.00010325    0.00006455
     atom   33 type  1   force =     0.00003021   -0.00025986    0.00019906
     atom   34 type  1   force =     0.00011230    0.00024156    0.00044045
     atom   35 type  1   force =    -0.00019621    0.00013413    0.00019331
     atom   36 type  1   force =    -0.00026314   -0.00016588    0.00052046
     atom   37 type  2   force =     0.00077905    0.00044203    0.00038504
     atom   38 type  2   force =     0.00406612    0.00231512    0.00306986
     atom   39 type  3   force =    -0.00469744   -0.00253995   -0.00368293

     Total force =     0.008740     Total SCF correction =     0.002167
     SCF correction compared to forces is large: reduce conv_thr to get better values

     negative rho (up, down):  1.351E-02 0.000E+00

     negative rho (up, down):  1.351E-02 0.000E+00

     negative rho (up, down):  1.351E-02 0.000E+00

     negative rho (up, down):  1.351E-02 0.000E+00

     negative rho (up, down):  1.351E-02 0.000E+00

     negative rho (up, down):  1.351E-02 0.000E+00

     negative rho (up, down):  1.351E-02 0.000E+00

     negative rho (up, down):  1.351E-02 0.000E+00

     negative rho (up, down):  1.351E-02 0.000E+00

     negative rho (up, down):  1.351E-02 0.000E+00

     negative rho (up, down):  1.351E-02 0.000E+00

     negative rho (up, down):  1.351E-02 0.000E+00

     negative rho (up, down):  1.351E-02 0.000E+00

     negative rho (up, down):  1.351E-02 0.000E+00

     negative rho (up, down):  1.351E-02 0.000E+00

     negative rho (up, down):  1.351E-02 0.000E+00

     negative rho (up, down):  1.351E-02 0.000E+00

     negative rho (up, down):  1.351E-02 0.000E+00

     negative rho (up, down):  1.351E-02 0.000E+00

     negative rho (up, down):  1.351E-02 0.000E+00

     negative rho (up, down):  1.351E-02 0.000E+00

     negative rho (up, down):  1.351E-02 0.000E+00

     negative rho (up, down):  1.351E-02 0.000E+00

     negative rho (up, down):  1.351E-02 0.000E+00

     negative rho (up, down):  1.351E-02 0.000E+00

     negative rho (up, down):  1.351E-02 0.000E+00

     negative rho (up, down):  1.351E-02 0.000E+00

     negative rho (up, down):  1.351E-02 0.000E+00

     negative rho (up, down):  1.351E-02 0.000E+00

     negative rho (up, down):  1.351E-02 0.000E+00

     negative rho (up, down):  1.351E-02 0.000E+00

     negative rho (up, down):  1.351E-02 0.000E+00

     negative rho (up, down):  1.351E-02 0.000E+00

     negative rho (up, down):  1.351E-02 0.000E+00
 BEEFens 2000 ensemble energies
             -0.606242839343963E+02
             -0.360670264162937E+01
             -0.158361908064040E+02
              0.428963253914976E+02
             -0.221056476018841E+02
             -0.205430353878929E+02
             -0.351837659168951E+02
             -0.864184731564084E+02
             -0.465711466546744E+02
             -0.473065395659057E+02
             -0.368867844513179E+02
              0.225501866375592E+01
              0.406321814597641E+01
              0.766360559247425E+01
              0.265180217939687E+01
              0.474655118441126E+02
             -0.208980293323156E+02
             -0.230888991395158E+02
              0.192441611116353E+02
             -0.112349823507165E+03
              0.535944056045751E+02
             -0.289860754250757E+02
             -0.332681020184015E+01
             -0.114186785166607E+02
             -0.888332897575299E+01
             -0.468321858983080E+01
              0.882548405997912E+02
             -0.186259940718820E+02
             -0.903331258011599E+01
             -0.517976927144624E+02
              0.815951100449099E+02
             -0.187971422518573E+02
             -0.374670890492213E+02
              0.249632928539036E+02
             -0.283515397186420E+01
              0.163204692732654E+02
             -0.488955815009354E+01
              0.108584083337585E+02
              0.287279009555200E+02
             -0.103276546240775E+03
              0.558074049089286E+02
              0.142343913769975E+02
             -0.166141063194794E+01
             -0.361740038939175E+02
              0.123051354029071E+02
             -0.146230643738182E+02
              0.397737685001442E+02
              0.364869062056664E+02
             -0.308526386645989E+02
             -0.274787605928682E+02
             -0.327885161813381E+02
             -0.351845147292177E+02
              0.135579951574138E+02
             -0.490710082482482E+02
              0.115304475323343E+02
              0.622910011690660E+02
              0.634391886871014E+02
              0.355805256239202E+02
              0.154390277693051E+02
              0.270022589209196E+02
              0.890888051597379E+02
              0.213070983246913E+02
             -0.548366245386205E+02
             -0.157429066521044E+02
             -0.235540136623103E+02
              0.629603348171189E+02
             -0.773738629088378E+02
             -0.671453131060526E+02
             -0.258646256748124E+02
             -0.639881823260578E+01
             -0.471350643444798E+02
              0.270565681551691E+02
              0.799406530239310E+01
              0.865461828969961E+01
             -0.396904850555906E+02
             -0.346580197471399E+02
             -0.541312622633506E+02
              0.390520235293056E+02
             -0.295441583095259E+02
              0.264650563970893E+02
             -0.712770674264038E+01
             -0.318107108376176E+02
             -0.576554151607884E+02
             -0.176630799447213E+02
             -0.902479519454266E+01
             -0.124938498841273E+02
              0.412111834685220E+02
              0.681731779730749E+02
             -0.385235139001171E+02
             -0.794451265191138E+02
             -0.219717332499835E+02
              0.111483399236066E+03
             -0.591951616080466E+02
              0.356015163976176E+02
             -0.955805646080012E+01
             -0.663436768086869E+02
              0.254480879371615E+02
              0.398556110518654E+02
             -0.198516912456094E+02
              0.400356569903763E+02
             -0.296117868277677E+02
             -0.477222017971249E+02
              0.864639313463936E+02
              0.453727402527463E+02
              0.336884939080051E+02
              0.146407427067624E+02
              0.205130043808780E+02
              0.856336919726267E+02
             -0.256715888640834E+02
              0.788095259750722E+01
             -0.142373345506751E+03
              0.181447132874677E+02
             -0.716076104493708E+02
              0.150853706377938E+02
              0.204445066842736E+02
             -0.332511801808884E+02
             -0.557118527915835E+02
              0.655071045128113E+01
             -0.303812717280948E+02
              0.307268810569197E+02
             -0.529717774365461E+02
              0.175499849621406E+01
             -0.356773050285244E+02
             -0.423655322138825E+01
             -0.107605916157209E+01
              0.180399903274863E+02
              0.141546795170109E+01
             -0.653305498940040E+01
              0.589587377016556E+02
              0.907677923994714E+02
              0.483692737786769E+02
              0.830885306636804E+02
             -0.115188180670321E+02
              0.143069401637565E+02
              0.541036909266238E+02
             -0.111571093119479E+02
             -0.735267720862530E+02
             -0.383327424528410E+02
             -0.521397806537604E+02
             -0.276561076975594E+02
              0.327107927277301E+02
             -0.116706682454409E+03
             -0.187112538492165E+02
              0.413551848449274E+02
             -0.386110340268207E+02
             -0.365303426043906E+02
              0.543424061019754E+02
              0.400494201938667E+02
             -0.353888485592146E+02
              0.136688078533123E+02
             -0.272934787923004E+02
              0.342909633171968E+02
              0.447675139445238E+01
              0.211638854739904E+02
             -0.884603023297589E+02
             -0.480160870849529E+02
             -0.995495477589259E+01
              0.325493913892959E+01
             -0.366460617735846E+02
              0.105937990180435E+03
             -0.231314477546196E+02
             -0.398744130464323E+02
              0.388888215472557E+02
             -0.494301459980757E+02
             -0.362822415009277E+02
              0.324551225243467E+02
              0.124269234043610E+02
              0.164581725934871E+02
              0.116036093585822E+02
             -0.132789319264249E+02
              0.225605271441229E+02
              0.590232478803398E+02
             -0.311855661422319E+02
              0.162303154790544E+02
              0.934105754930831E+02
              0.340404467031199E+02
             -0.731322825404618E+01
             -0.188081715437541E+02
              0.153255971629612E+03
             -0.163510934602550E+02
              0.362769550462070E+02
              0.193885657523909E+02
              0.362049764190685E+02
              0.891674934508777E+02
              0.542817583463807E+02
             -0.240745852339752E+01
              0.227270603818199E+02
              0.484199390688942E+02
              0.363220047180216E+02
             -0.525077889088949E+02
              0.935440897223942E+02
             -0.825205658171521E+02
             -0.198385497165727E+02
              0.582750473838217E+02
              0.667282045966156E+01
              0.788324294831398E+01
              0.341242427711252E+02
              0.299301893314617E+02
              0.353645008651373E+02
             -0.637369599859218E+02
              0.288348226002563E+01
             -0.297545964355577E+02
             -0.872367214593569E+01
             -0.143030862814271E+01
             -0.717696510009865E+01
             -0.413382509350851E+01
              0.859036620118227E+02
             -0.101254281239751E+02
             -0.276222785520098E+02
             -0.497662207883446E+01
              0.139748128032710E+02
             -0.563356109840805E+02
             -0.406128740392707E+02
             -0.382063182831057E+02
             -0.629618200331466E+02
             -0.169388533239410E+02
             -0.447342864986204E+02
              0.163412235315189E+02
             -0.241688361869940E+01
             -0.104310198771934E+02
             -0.934523764142193E+01
              0.808742999558768E+01
             -0.243464633544571E+02
              0.688895739120383E+02
             -0.806394473071549E+02
             -0.140955880568009E+02
             -0.174288748938166E+02
              0.182081248105383E+02
              0.213728571968710E+02
             -0.463294488874590E+02
             -0.202065871085965E+02
              0.440630139125312E+02
             -0.276339621059719E+02
              0.186720231883971E+02
              0.382996309743717E+02
             -0.321218501296232E+01
              0.114069504711688E+03
             -0.230590227050897E+02
             -0.340916332853141E+02
              0.581013670978007E+01
             -0.227787558880264E+02
              0.527185504738204E+02
             -0.336455487114980E+02
              0.106259717894172E+02
              0.640933708148542E+02
             -0.126468768664566E+02
              0.120153089811485E+03
              0.125792250861411E+03
             -0.649284570772836E+02
              0.590114293409762E+02
              0.166000711698547E+02
             -0.517300125848552E+02
              0.216423498662653E+02
              0.353122450528321E+02
              0.362075456766885E+02
              0.134993588473193E+01
              0.159251460164808E+02
              0.695042242225732E+02
             -0.246794167029435E+02
              0.181414980877641E+02
              0.739173229161602E+02
             -0.372561719090313E+02
             -0.128979147627485E+02
              0.507809583815620E+02
              0.297095606204593E+02
              0.780091914339343E+02
              0.222179625982330E+02
              0.620840414165832E+01
              0.280505156922749E+02
              0.382886895263599E+02
             -0.470850838565198E+02
              0.328218817309909E+01
              0.128792359196649E+02
              0.113332321725093E+02
              0.220196073694923E+02
             -0.574259998035440E+02
              0.366005436621610E+02
             -0.443666025793067E+02
             -0.347121197446582E+02
              0.177528093801566E+02
             -0.181844253703497E+02
              0.554202388250723E+02
             -0.256644152906031E+02
              0.266499465782020E+02
              0.368171099721314E+02
              0.828881072241057E+02
              0.574491803848493E+02
              0.461409577205793E+02
             -0.106389025855678E+02
             -0.386161017244052E+01
             -0.332023259655933E+02
              0.749845947330433E+02
              0.796631169942035E+02
              0.361464231761249E+02
             -0.191515283104177E+02
              0.511595780004851E+02
             -0.163435745904786E+02
              0.215207789620231E+02
              0.613824231965412E+02
              0.213202410570128E+01
             -0.104410745938557E+02
             -0.283255283456217E+02
             -0.510604563999338E+02
              0.944599347899320E+02
              0.438917768805842E+02
             -0.558241278359086E+02
             -0.958083169703502E+01
              0.250059349180838E+02
             -0.999102348947241E+01
              0.591541224313182E+02
              0.152117361063947E+02
              0.798662800381753E+02
              0.278992055333376E+02
             -0.264166978789893E+02
              0.249159911537063E+02
             -0.501811322973191E+01
             -0.323838219608978E+02
              0.133215293111365E+02
              0.205918721514395E+02
              0.932000605224414E+02
              0.797038165255107E+02
              0.550494674755624E+02
              0.730669607856657E+02
              0.800293968195643E+01
             -0.273529279672498E+02
              0.162996197748658E+02
             -0.368129579466280E+02
             -0.475583663510798E+02
             -0.563516142043471E+02
             -0.266366302399499E+02
             -0.109655415242835E+03
             -0.290798027132361E+02
             -0.836610451379991E+02
              0.209704235773116E+02
             -0.476948697932414E+02
              0.396165530551621E+02
             -0.940431847215295E+02
             -0.329799469124047E+02
              0.549052942856709E+02
              0.207490781159229E+02
             -0.829699135476084E+02
              0.631108938634887E+02
             -0.256505104823336E+02
              0.512189596819185E+02
             -0.242895613727984E+02
             -0.750797013826651E+02
              0.112068840498123E+02
             -0.611001692349930E+02
             -0.168833858954197E+02
             -0.146802830669981E+01
              0.418343537574771E+02
              0.126931343602538E+03
             -0.461673071736658E+02
             -0.362409275908279E+02
             -0.967825599457171E+00
             -0.130611074005732E+02
             -0.822055563762385E+02
             -0.596747239301036E+02
              0.517097199569231E+02
             -0.289314194822223E+02
              0.168594537209461E+02
             -0.489256429206014E+02
             -0.131724661812086E+02
             -0.437181801029942E+02
              0.565348664302182E+02
              0.151295663130360E+02
             -0.231343525681439E+02
             -0.126487349596351E+02
              0.664383053284722E+01
             -0.621534198481754E+01
              0.441558883546736E+02
             -0.252012023026301E+02
              0.271823520921475E+01
              0.338830467593805E+02
              0.171569956251075E+02
             -0.159291699871241E+02
              0.156190115846441E+03
              0.537267812156307E+02
              0.113258067381376E+01
              0.161831459658272E+02
             -0.614477277157477E+02
              0.314744640439939E+02
             -0.721040324875090E+02
             -0.251649748372917E+02
             -0.522059745482478E+02
             -0.219846582895767E+02
              0.568540836062224E+02
             -0.536642534240971E+02
              0.160271709902514E+02
             -0.405579314012095E+01
              0.389362399733443E+01
             -0.434022712623328E+02
             -0.478196434359588E+02
             -0.396633781057915E+01
             -0.425488427304354E+02
             -0.217214707838500E+02
             -0.438152101494465E+02
             -0.119470110599987E+02
             -0.358927737238106E+02
             -0.516394716468102E+02
              0.213046732171316E+02
             -0.209753756390662E+02
              0.187511309205302E+02
              0.976499566647593E+01
             -0.737441003496762E+02
             -0.548137053778020E+02
             -0.397341454554633E+02
              0.354553114096550E+02
              0.274727142358296E+01
             -0.626773431888279E+02
              0.585226665705682E+02
             -0.400828987507430E+02
              0.543963471195639E+02
             -0.289300556373916E+02
             -0.445893982806181E+02
              0.298664595181871E+02
             -0.657172998011570E+02
             -0.379969636931244E+02
              0.672947503624348E+02
              0.203741363892838E+02
             -0.359391688108733E+02
              0.489082236544581E+02
             -0.173985383547430E+02
             -0.322450438564111E+02
             -0.301815050120891E+02
             -0.500295289439053E+02
              0.249068786404581E+02
             -0.932628451584741E+02
             -0.840243535545762E+02
             -0.733172574913181E+01
             -0.306626294614513E+02
             -0.575221709013264E+02
              0.721298043919203E+02
              0.131434803478306E+03
             -0.361402754177578E+02
             -0.252957922954477E+01
             -0.637116503762518E+02
              0.650015421983006E+02
              0.170616731981753E+02
             -0.181385158404099E+02
             -0.409984537510568E+02
              0.148648612005473E+02
             -0.586053067827070E+02
             -0.197817989917868E+02
             -0.904700333517346E+02
              0.336818981562978E+02
              0.169338074830465E+02
              0.185849339876461E+01
             -0.700564510252059E+01
             -0.329026851619810E+02
             -0.754638369125951E+01
              0.125407676669904E+03
             -0.198985483008181E+02
             -0.436843674631883E+02
             -0.683421874895414E+02
              0.109023858538739E+02
             -0.341619264652735E+02
              0.587831489531024E+01
              0.261169036592136E+02
              0.102087191237354E+02
              0.277459679558815E+02
              0.119500250834541E+02
              0.629267307022670E+02
              0.317033712533185E+02
             -0.326071914861594E+02
              0.354471970427434E+02
              0.379548228696626E+02
              0.120921449787750E+02
              0.487168417202358E+02
             -0.224029760531368E+02
              0.765589859143228E+02
              0.171917460096747E+02
             -0.271844299858465E+02
             -0.724050259456303E+01
             -0.186223869562548E+02
              0.262109355896300E+02
             -0.234614797221409E+02
             -0.698142271324684E-01
             -0.849000559842102E+01
              0.809203185479022E+02
              0.499697798771024E+02
             -0.687466773099840E+02
             -0.474084071373275E+01
             -0.555698063152171E+02
             -0.159679048175961E+02
             -0.268383918149859E+02
              0.373528544307010E+01
              0.576249085229675E+00
             -0.257307132865718E+02
              0.810178812467888E+01
             -0.601714471757963E+01
             -0.128946292460762E+02
              0.858505108207796E+02
              0.181946543213218E+02
             -0.806034612887255E+02
             -0.458387492858006E+02
              0.944063637634680E+02
              0.277698836744648E+02
             -0.106795787358734E+02
              0.104493084625224E+03
             -0.195173746713870E+02
             -0.123106924933914E+02
             -0.536017709709824E+01
              0.107357538072336E+02
              0.271750326541282E+02
              0.781946711044202E+01
              0.305335393790123E+02
             -0.188087644664991E+02
             -0.302991573313039E+02
             -0.417382762502476E+02
             -0.476802907323931E+02
              0.463945944039908E+02
              0.126876638189274E+02
              0.387450789663192E+02
              0.133350478344072E+02
              0.855019357934054E+02
              0.156211225273028E+02
             -0.845523377929089E+02
             -0.334391002849011E+02
              0.134222042084413E+02
             -0.302857021017645E+02
              0.626130230306812E+02
             -0.885727042796657E+01
              0.148750828306140E+02
              0.496811868350259E+02
             -0.706597482794768E+02
              0.149688132628315E+03
              0.208650034183002E+02
              0.271236673687762E+02
              0.347292236022992E+02
              0.104140131996781E+02
             -0.157663000804661E+01
              0.358611947732057E+02
             -0.356889235703715E+02
              0.772331094224797E+02
              0.684140160762086E+02
             -0.405810424726345E+02
              0.149653359226447E+02
              0.669785453038577E+02
             -0.223993066731159E+02
              0.153896943097335E+02
              0.435493232278618E+02
              0.422300358332971E+02
             -0.784603599765419E+02
             -0.152965145983976E+02
             -0.356553121771506E+02
             -0.148549157659050E+01
             -0.766056343550797E+01
             -0.551030785386774E+01
             -0.181044302636940E+02
             -0.293470734747614E+02
              0.628916045304960E+01
              0.111915137684369E+02
              0.535477618066105E+02
             -0.389745095143583E+02
              0.373597244908914E+02
              0.438095942709147E+02
             -0.187198772283681E+02
              0.872317504464134E+02
             -0.697505464436891E+02
             -0.103123258451922E+03
             -0.655081246160481E+01
             -0.268456796259750E+01
              0.388319302490515E+01
              0.788825418673104E+02
             -0.107414676810183E+02
              0.416363795784338E+02
              0.442928140351235E+02
              0.385068298276882E+02
             -0.992941245906172E+01
              0.627745484541883E+02
             -0.133525968866045E+02
             -0.306982419023698E+02
             -0.480063985412583E+02
              0.585585842212983E+01
              0.370043279939622E+02
             -0.603321600582322E+01
              0.393249281084254E+02
             -0.173479986957750E+01
              0.655357042143215E+02
              0.187626723044162E+02
              0.997079772545497E+01
             -0.122163928253299E+02
              0.332241862757355E+02
              0.362333802987264E+02
              0.232929715049585E+02
             -0.509371853453359E+00
             -0.550229682894362E+02
              0.260396623741701E+02
              0.174972354815964E+02
              0.402892611177263E+02
              0.272188305547662E+02
              0.372209012768915E+02
             -0.604154472768670E+01
              0.250466010548010E+02
             -0.298224314125500E+02
             -0.198005803353419E+01
             -0.569145385661313E+02
             -0.307733010374241E+02
              0.378570819162500E+02
             -0.935361010959027E+02
              0.294623866597620E+02
              0.184031122123630E+02
              0.839459144455860E+02
             -0.301365421877107E+02
              0.329099553411998E+02
             -0.137712135187397E+02
             -0.463627222954528E+02
             -0.761814346693785E+02
             -0.520850789827779E+01
             -0.859462996526192E+02
              0.200146531729813E+02
             -0.247429895578166E+02
              0.305492978106122E+02
              0.236367349083631E+02
             -0.240724760835569E+02
             -0.265024915657731E+02
              0.390810969596679E+02
             -0.587752857575829E+02
             -0.116357049837785E+02
             -0.196080498730394E+02
              0.212360189891449E+02
             -0.898015723704850E+01
              0.361122834031687E+01
             -0.200877055076249E+02
              0.558442819618260E+02
             -0.438463048332801E+02
              0.789642854888348E+01
              0.584832202745970E+02
             -0.322929593929594E+02
              0.358281753174799E+01
             -0.885694575990203E+01
             -0.669523834090712E+02
             -0.483044749361993E+02
             -0.864266622938846E+01
              0.240312946225165E+02
              0.301826266296718E+02
              0.860555665857356E+01
             -0.410317653303684E+01
              0.152057243372807E+02
             -0.440147786030497E+02
              0.335185196128532E+01
             -0.530936768648636E+02
             -0.324512325075346E+02
              0.474307527863022E+02
             -0.294931331551505E+02
              0.621760005634976E+02
             -0.214393749439707E+02
              0.353900743227294E+02
              0.241601491718046E+02
             -0.643886797591046E+02
             -0.280673326538325E+02
              0.929823751067528E+01
             -0.371029960555188E+02
             -0.339527940037805E+02
             -0.829147523804629E+02
             -0.539255411036762E+02
             -0.510292141233562E+02
             -0.415264922826792E+02
             -0.979082252727949E+00
              0.990091716985145E+01
              0.980702760166821E+00
              0.152614678434286E+02
             -0.549024191327894E+02
              0.141667067981989E+02
              0.256030143349302E+02
             -0.666597847177653E+02
             -0.702052633282407E+02
             -0.430937353735376E+02
             -0.171209628010640E+02
              0.178756271876610E+02
              0.456376980174218E+01
             -0.426163319034581E+02
              0.366518875576985E+02
             -0.215872909488805E+02
              0.517311394260806E+02
             -0.886601091743480E+02
              0.596891568798208E+02
             -0.206142518287021E+01
             -0.368210485691826E+02
             -0.216298975792534E+02
              0.471606616003950E+01
              0.374179066139099E+02
             -0.756131132005109E+02
             -0.120695088787601E+02
             -0.216618942354123E+02
              0.511212596515772E+02
              0.864383930208361E+02
             -0.964464500541608E+02
              0.943787228561559E+02
              0.468029769332820E+02
             -0.725149885439231E+02
             -0.366654112633969E+02
              0.751472975770100E+02
              0.631930416290861E+02
             -0.180969988882067E+02
             -0.464479991803904E+01
              0.729150937757390E+01
              0.648439595589100E+02
             -0.507963588441011E+02
              0.158548891999114E+02
             -0.470061700821235E+01
              0.348054679544763E+02
             -0.746684207689586E+02
             -0.649182312526384E+01
             -0.351417362479258E+02
              0.460437057684713E+02
              0.468829026550790E+02
             -0.861119694231500E+02
             -0.486820449077477E+02
             -0.256315594128603E+02
             -0.338788599519649E+02
             -0.109349613296992E+02
             -0.243284096398795E+02
              0.427193023461915E+02
              0.401076143890090E+02
             -0.568639218382151E+01
             -0.415791794359353E+02
             -0.849781959503231E+02
              0.442656096644478E+02
             -0.523372409741910E+02
             -0.312597441248635E+02
              0.546207956715418E+01
             -0.322041222849013E+02
             -0.397660178480256E+02
             -0.239893857661793E+02
             -0.384816089043038E+02
             -0.270803211648992E+02
             -0.482505808285868E+02
              0.563892929693602E+02
              0.638409919637537E+02
             -0.167873061690375E+01
             -0.261373906061618E+02
             -0.628779725800382E+01
              0.441237573713063E+02
             -0.867868203727274E+02
             -0.146137300516689E+02
              0.523718718872373E+02
              0.662798424432964E+02
             -0.245056271620037E+02
              0.917047924478413E+01
              0.523210981978574E+02
              0.198193652143258E+02
             -0.831717476248519E+01
             -0.453063616040215E+02
              0.280783072088382E+02
             -0.352624909398568E+02
             -0.165386160806129E+02
             -0.152653646320655E+02
             -0.200358271135950E+02
              0.194383176225454E+02
              0.800190768362434E+02
              0.190350109342469E+01
              0.535515503126527E+01
             -0.887076568684442E+02
             -0.175910566632020E+02
             -0.352574649454793E+02
              0.279360441237867E+01
             -0.409075923537600E+02
              0.729549169658039E+02
              0.784198710763610E+02
              0.123876332414893E+02
             -0.141043776904883E+02
              0.143648104194629E+02
              0.260627107479636E+02
             -0.481724719399367E+02
             -0.869650353318536E+01
              0.137611402623688E+02
              0.164780285181678E+02
              0.563343791307426E+02
              0.421885977841492E+02
             -0.198000551022321E+02
              0.331468270793634E+02
             -0.967831556428219E+02
             -0.571410084755939E+00
              0.847146142908215E+02
              0.911157454876314E+01
              0.143487059462780E+01
              0.335460008750239E+02
             -0.298028836248723E+02
              0.958801567712194E+02
[...]
              0.283556233097971E+02
              0.141738720801209E+03
              0.242094164342709E+02
              0.122461024217173E+02
             -0.464356197767943E+02
             -0.637657889178669E+02
             -0.189037542264169E+02
              0.329455275535631E+02
             -0.427278302986849E+01
              0.189329518392030E+02
              0.335712000424752E+02
             -0.586450437085302E+02
              0.222247076968258E+02
              0.582754879791952E+02
              0.552920205884203E+02
             -0.418003621797158E+01
             -0.140215318864068E+01
             -0.994799159732443E+01
             -0.482380954368717E+02
             -0.674455006613233E+02
              0.785382282784939E+02
             -0.521598097901654E+01
             -0.587808603440751E+02
              0.166013771413398E+01
             -0.204900141877255E+02
              0.938182489336377E+02
             -0.216086507061162E+02
             -0.353150204915194E+02
              0.334683416637268E+02
             -0.145478782128180E+02
              0.389245504325210E+02
             -0.243153265264300E+01
              0.101068093097775E+03
              0.488903812575932E+02
             -0.519990078689939E+01
             -0.321449335253133E+02
              0.232030872361693E+02
             -0.528171370751479E+02
             -0.128033308207551E+02
              0.585225401878210E+02
             -0.287506361502474E+02
             -0.438172122771182E+02
             -0.222870406729950E+02
              0.518421387150936E+02
              0.124934850825518E+02
             -0.848711272727896E+02
              0.303806211332941E+02
              0.152456221800372E+02
              0.574642240961188E+01
             -0.513115258492319E+02
             -0.379882979571022E+01
              0.322914871533064E+02
              0.513069798308680E+02
              0.631729678596314E+02
              0.228435866574454E+02
              0.752443454439657E+00
             -0.497362367984895E+02
             -0.509817329201389E+02
             -0.748099068602769E+02
             -0.608736426400367E+01
              0.308677505153161E+02
             -0.383429403748559E+01
              0.546503407082180E+02
             -0.317740575514853E+02
              0.166314004479660E+02
             -0.102017664595759E+02
             -0.289333860946723E+02
              0.585192458633100E+02
              0.792888303060681E+01
              0.603519669984818E+02
              0.509694962310630E+01
              0.265164187640946E+02
             -0.192492640271641E+02
              0.585824708833016E+02
             -0.110987453181987E+02
             -0.145444477632703E+00
             -0.789590693012348E+02
             -0.128524877911491E+02
              0.718854943594362E+02
              0.673191627194523E+02
              0.251260418834309E+02
             -0.130107781827022E+02
              0.339253437619061E+01
             -0.172939647977597E+02
             -0.196973021296279E+01
              0.906899212684814E+02
              0.120499591731084E+01
             -0.189856349950026E+02
             -0.110707859816145E+03
             -0.553087661680829E+02
             -0.374631287632857E+02
             -0.658526795800447E+02
             -0.554989531852473E+02
             -0.682370239515702E+02
             -0.446722277084402E+02
             -0.411013360224734E+02
             -0.451394424613687E+02
              0.483310657256038E+02
             -0.294535039347373E+02
             -0.996163430354518E+02
              0.418829858239696E+02
             -0.259512421061785E+02
             -0.790278616298160E+02
              0.943268429633469E+02
             -0.219405112867373E+02
              0.228239781101120E+02
              0.455334321319511E+02
             -0.141448816509143E+01
              0.253864918234926E+02
              0.471393141808980E+01
              0.411433397857866E+00
             -0.150398109024461E+02
             -0.715003043552650E+02
              0.133323082958253E+02
             -0.129356883225357E+03
              0.623060710806537E+02
             -0.440341666099440E+02
             -0.162423532978428E+02
             -0.157666173994402E+02
              0.707640865415726E+01
             -0.227819419777680E+02
              0.297224149869152E+02
             -0.519882180794370E+02
              0.367255800308201E+02
              0.370311808801416E+02
              0.168857575995995E+02
              0.100403270845981E+02
              0.197631203732425E+02
              0.618056005704778E+01
              0.310407971967992E+02
             -0.802340237957367E+01
             -0.590870147087943E+02
              0.757799582479959E+01
             -0.152024810135956E+02
             -0.192692556601980E+01
              0.505343230398078E+02
             -0.826529021404614E+02
             -0.151989129026703E+01
              0.545758082498025E+00
              0.994311211997160E+01
              0.318290499327925E+02
             -0.123540041191976E+02
              0.835133808606846E+02
              0.488232319618115E+02
             -0.183435964627767E+02
             -0.959416206793924E+01
              0.104716663583784E+01
              0.769169135353296E+02
             -0.586101212137251E+02
             -0.105721182588756E+03
              0.309059040890803E+02
             -0.162841982111817E+02
             -0.139293676279149E+02
              0.130200128842131E+02
              0.768233964867086E+02
              0.464084205908903E+02
             -0.153344967224617E+02
             -0.502351992542989E+02
             -0.545405487049716E+01
              0.306302241223880E+02
             -0.111273110592083E+02
             -0.754986609767641E+02
             -0.266385147108451E+01
             -0.888776500063731E+02
             -0.474940399043026E+02
              0.767237472578409E+02
             -0.482983199567807E+02
             -0.635741829757544E+02
             -0.514088519681106E+02
             -0.349151976839642E+02
              0.340648571513675E+02
              0.820875782860199E+02
             -0.351571737088028E+01
              0.276341710352981E+02
             -0.183386052744755E+02
             -0.693234126096127E+02
              0.464650395397041E+02
             -0.444451571048442E+02
              0.322043071506413E+02
              0.376381576754072E+02
             -0.652173895066005E+01
              0.390794339493290E+02
              0.438432628913556E+02
              0.100493527827844E+03
             -0.156365362976649E+02
             -0.454786275664482E+02
             -0.612140689803497E+02
             -0.123390183699884E+02
             -0.232009126808870E+02
              0.102995864726677E+03
             -0.448692024457253E+02
              0.105030225884351E+02
              0.974643595856787E+01
             -0.264664896122061E+02
             -0.797696552345677E+02
             -0.699321660748677E+01
              0.978955183158926E+02
              0.932127896645358E+01
              0.810519595981202E+01
             -0.525908479747025E+02
             -0.604843756939517E+02
             -0.557538204674131E+01
              0.499936571831578E+02
             -0.221647911616994E+02
              0.107912794389605E+03
             -0.434810118534778E+02
              0.146053318904740E+02
             -0.224482333568050E+02
             -0.718011529110785E+02
              0.166093681240829E+01
             -0.501022584125308E+02
             -0.759982872135430E+02
              0.611648222490078E+01
              0.235180276591387E+01
              0.513723508129507E+02
              0.186806135628325E+02
             -0.323162617781727E+02
              0.230132854505543E+02
             -0.809679612519469E+02
             -0.521576057836257E+02
              0.901063479406879E+02
              0.142710299243322E+02
             -0.188477724544964E+02
             -0.352533176747604E+02
             -0.269233450122408E+01
             -0.582892047418022E+01
              0.829010572799398E+02
              0.417332156307345E+02
             -0.166339195353351E+02
             -0.122494846287293E+02
             -0.427648396386353E+02
             -0.201038637397891E+02
             -0.669707590638301E+02
              0.459126818258988E+02
              0.545656421671265E+01
              0.145033143475611E+02
              0.155563856321138E+02
             -0.518961232527555E+00
             -0.168057834459814E+02
             -0.317335217265072E+01
             -0.100296934549018E+03
             -0.229997411885885E+02
             -0.761316527901215E+01
             -0.948302238174213E+01
              0.546410595934582E+02
              0.623039394987302E+02
              0.164519901619689E+02
             -0.969915664995850E+02
              0.647001162671867E+02
             -0.214825232892804E+02
             -0.376651472984613E+02
             -0.863439152786128E+02
             -0.387284289086468E+02
              0.563433702344271E+02
              0.243741826838043E+02
              0.512208613346729E+01
              0.291822427599034E+02
             -0.564475241299319E+02
             -0.421630965222680E+02
              0.514493410261887E+02
              0.386818668908894E+02
              0.518687048062760E+02
             -0.131046861277642E+01
              0.682133841041025E+01
              0.569091267171308E+02
              0.961986230428990E+02
             -0.300466009823681E+02
              0.322239104644082E+02
             -0.117337978486172E+02
             -0.411861440736447E+02
             -0.313831812299030E+02
             -0.299559718272847E+02
             -0.131103343665962E+02
             -0.523037904905337E+02
             -0.217369763089825E+02
             -0.141085227978711E+03
              0.368822526612871E+02
              0.206319691419647E+02
             -0.392193034211314E+01
             -0.379739372845065E+02
             -0.204272041687100E+02
             -0.525994987948181E+02
              0.151512463033353E+02
              0.819453216523200E+02
             -0.252124788760636E+02
             -0.162680619010581E+02
              0.237643929613516E+02
             -0.488799564894915E+02
              0.880090460025748E+02
              0.154475831590793E+02
              0.226752272671428E+02
              0.489819216324640E+02
              0.325246939584719E+01
              0.541509298216178E+02
              0.142554786248700E+02
             -0.106870384955951E+02
              0.728527181924954E+01
              0.836282092466718E+00
              0.727113803940678E+02
              0.101141123438352E+02
              0.119994092021699E+02
             -0.129986754460338E+02
              0.132368984161882E+02
             -0.910448441394404E+02
             -0.325737488717782E+02
             -0.456739519606076E+02
              0.485141897674188E+02
             -0.290652089719662E+02
             -0.658521970988896E+02
              0.537706190978085E+02
             -0.122120337388614E+02
              0.439802218998655E+02
             -0.898205627975922E+02
              0.232281069985819E+02
              0.858854925041476E+01
              0.578178898969077E+01
             -0.828691244549213E+01
             -0.902275482216385E+01
              0.479157010025095E+02
              0.201075138057945E+01
             -0.474067140861418E+02
             -0.175788355529139E+02
              0.276955809927717E+02
             -0.117852684710572E+03
             -0.929314459963850E+02
              0.398238323852053E+01
              0.117204097448947E+02
             -0.412274601927186E+02
             -0.391770135779097E+01
              0.112062627433086E+03
              0.306656460981474E+02
             -0.571162509721016E+02
              0.924920179142919E+01
             -0.962755847923005E+01
              0.105449513939390E+02
             -0.336969838557748E+02
              0.194913763981702E+02
              0.284399337086521E+02
             -0.297308696630171E+01
              0.108053589559283E+03
             -0.140674462670986E+02
             -0.315933489782253E+02
              0.142293637433321E+02
              0.466428396515869E+02
             -0.355953866086581E+02
             -0.317128120129751E+01
              0.963868359906589E+02
             -0.467752982951583E+01
              0.621173336463092E+02
              0.135268644015464E+02
             -0.903776565699472E+01
             -0.305368039542121E+02
              0.566494307970163E+02
             -0.513658422196048E+02
             -0.223273965099918E+01
             -0.169776829186386E+02
             -0.405059162385522E+02
              0.184748364207193E+02
              0.238680581503052E+02
              0.116446855578646E+02
              0.723597817867358E+00
             -0.383709398263960E+02
              0.215472415944757E+02
             -0.675935557631760E+01
             -0.246504347970193E+02
             -0.210584079699548E+02
              0.203696452555639E+02
             -0.599055986634630E+01
             -0.348750366315307E+02
             -0.106521620439146E+03
              0.102615593004433E+02
              0.249271600341455E+02
             -0.386487376044357E+02
             -0.210506810003234E+02
              0.806176778844162E+02
              0.646417535456919E+01
              0.309927268976106E+02
              0.385504461640508E+01
              0.321250998290017E+02
              0.647847582198995E+01
             -0.372618907073255E+02
             -0.225514625923017E+01
              0.876148945953537E+01
              0.273379335997889E+02
              0.781707725900102E+02
              0.507035410036946E+02
              0.168632599632815E+00
              0.168933215607123E+02
              0.612597212623542E+02
              0.235428666425639E+02
             -0.752651828891180E+02
             -0.273603099843019E+02
              0.151364981429492E+02
              0.559734338612213E+01
              0.254738804403688E+02
             -0.547609106081829E+02
              0.900204548703032E+01
              0.385266087835644E+02
              0.497670383603430E+02
             -0.434576219696551E+02
             -0.694658792020260E+01
             -0.207386701390544E+01
             -0.133558201019182E+02
             -0.365645312166886E+02
             -0.215389663769402E+02
             -0.194521089361633E+01
              0.790658813557656E+01
              0.420969157755227E+02
             -0.307796225721352E+02
              0.825424149430659E+02
              0.327163590685954E+02
              0.219295903800561E+02
              0.332536435712496E+02
              0.323429076545212E+02
              0.345452227565656E+02
              0.536715224832920E+02
             -0.433476047214088E+02
              0.618993458108578E+02
             -0.112151061802364E+03
              0.307274935634059E+02
             -0.106452130884181E+03
              0.854042045538890E+02
              0.689838566525216E+02
             -0.109834476140032E+02
             -0.493155735888583E+02
             -0.429074398242995E+02
             -0.623386903022341E+02
             -0.627969606276050E+02
              0.551179043158115E+02
              0.405099061629384E+02
              0.236566697149628E+02
              0.374138329713300E+02
              0.402219694417252E+02
             -0.381689841475902E+02
             -0.197865738358479E+02
              0.586094105881380E+02
             -0.115841516724626E+02
              0.551286047015919E+02
              0.698384145655087E+02
             -0.552225938692252E+01
             -0.705432967993737E+02
             -0.942613636871101E+00
             -0.246562164610154E+01
             -0.881383043442565E+01
             -0.179885267479000E+01
             -0.652598969788889E+02
             -0.211273939783223E+02
              0.535781002004145E+01
              0.893863165023015E+01
              0.468255916251715E+02
             -0.397172001111324E+02
              0.657860386600734E+02
             -0.425054220312739E+02
              0.209850639509975E+02
              0.349832050674429E+02
 
 BEEF-vdW xc energy contributions
           1 :   -782.608840422865     
           2 :    719.186699545612     
           3 :   -609.321054069872     
           4 :    479.871403481035     
           5 :   -358.154085607630     
           6 :    263.905692589505     
           7 :   -204.825618207507     
           8 :    176.537956032322     
           9 :   -166.534356175259     
          10 :    160.248016005744     
          11 :   -146.803209649439     
          12 :    122.276111761740     
          13 :   -89.6073506492886     
          14 :    55.7594684456776     
          15 :   -27.7601615115982     
          16 :    9.43251184299334     
          17 :  -7.912088941191087E-002
          18 :   -4.61464838268705     
          19 :    10.1344292242394     
          20 :   -20.4308095093214     
          21 :    36.2032797282582     
          22 :   -54.8600859741009     
          23 :    72.0054967922226     
          24 :   -83.6395558641923     
          25 :    87.9882688390547     
          26 :   -86.1525392802749     
          27 :    81.3720357060283     
          28 :   -77.3579214648200     
          29 :    76.5322314740115     
          30 :   -79.0050819616130     
          31 :   -85.6320903812741     
          32 :   -65.6491928095566     

     Writing output data file ./pwscf.save/
 
     init_run     :    307.19s CPU    311.65s WALL (       1 calls)
     electrons    :  11248.56s CPU  11360.75s WALL (       1 calls)
     forces       :     96.93s CPU     98.12s WALL (       1 calls)

     Called by init_run:
     wfcinit      :    258.43s CPU    261.93s WALL (       1 calls)
     potinit      :     45.84s CPU     46.18s WALL (       1 calls)
     hinit0       :      1.18s CPU      1.23s WALL (       1 calls)

     Called by electrons:
     c_bands      :   9397.80s CPU   9486.10s WALL (      18 calls)
     sum_band     :   1219.62s CPU   1230.22s WALL (      18 calls)
     v_of_rho     :    117.56s CPU    121.24s WALL (      18 calls)
     newd         :     25.82s CPU     35.63s WALL (      18 calls)
     PAW_pot      :    125.08s CPU    125.10s WALL (      18 calls)
     mix_rho      :    409.15s CPU    409.76s WALL (      18 calls)
     vdW_kernel   :     33.86s CPU     33.86s WALL (       1 calls)

     Called by c_bands:
     init_us_2    :     69.06s CPU     69.34s WALL (     494 calls)
     cegterg      :   8677.03s CPU   8764.99s WALL (     234 calls)

     Called by *egterg:
     cdiaghg      :     79.59s CPU     79.65s WALL (    1165 calls)
     h_psi        :   5450.92s CPU   5481.96s WALL (    1191 calls)
     s_psi        :    944.64s CPU    944.79s WALL (    1191 calls)
     g_psi        :     16.18s CPU     16.18s WALL (     944 calls)

     Called by h_psi:
     h_psi:calbec :    899.53s CPU    899.81s WALL (    1191 calls)
     vloc_psi     :   3581.59s CPU   3582.98s WALL (    1191 calls)
     add_vuspsi   :    944.14s CPU    944.32s WALL (    1191 calls)

     General routines
     calbec       :   1314.01s CPU   1314.38s WALL (    1477 calls)
     fft          :     45.84s CPU     45.87s WALL (    3098 calls)
     ffts         :    128.97s CPU    129.01s WALL (    9844 calls)
     fftw         :   3670.35s CPU   3671.40s WALL (  313854 calls)
 
     Parallel routines
 
     PWSCF        :      3h16m CPU      3h18m WALL

 
   This run was terminated on:  19:15:59  20Dec2022            

=------------------------------------------------------------------------------=
   JOB DONE.
=------------------------------------------------------------------------------=
