
     Program PWSCF v.6.7MaX starts on 20Dec2022 at 21:50: 5 

     This program is part of the open-source Quantum ESPRESSO suite
     for quantum simulation of materials; please cite
         "P. Giannozzi et al., J. Phys.:Condens. Matter 21 395502 (2009);
         "P. Giannozzi et al., J. Phys.:Condens. Matter 29 465901 (2017);
          URL http://www.quantum-espresso.org", 
     in publications or presentations arising from this work. More details at
     http://www.quantum-espresso.org/quote

     Parallel version (MPI), running on     1 processors

     MPI processes distributed on     1 nodes
     Reading input from c-gas-ensemble.in
Warning: card &CELL ignored
Warning: card / ignored

     Current dimensions of program PWSCF are:
     Max number of different atomic species (ntypx) = 10
     Max number of k-points (npk) =  40000
     Max angular momentum in pseudopotentials (lmaxx) =  3
     file C.pbe-n-kjpaw_psl.1.0.0.UPF: wavefunction(s)  2S 2P renormalized

     **************************************************************************
     Initializing libbeef V0.1.2 with the BEEF-vdW functional.
     Citation: Wellendorff et al., PRB 85, 235149 (2012).
     **************************************************************************


     IMPORTANT: XC functional enforced from input :
     Exchange-correlation= BEEF-VDW
                           (   1   4  43  14   2   0   0)
     Any further DFT definition will be discarded
     Please, verify this is what you really want


     gamma-point specific algorithms are used

     Subspace diagonalization in iterative solution of the eigenvalue problem:
     a serial algorithm will be used

 
     G-vector sticks info
     --------------------
     sticks:   dense  smooth     PW     G-vecs:    dense   smooth      PW
     Sum       27281   27281   6817              3389267  3389267  423701
 


     bravais-lattice index     =            0
     lattice parameter (alat)  =      37.7945  a.u.
     unit-cell volume          =   53986.6760 (a.u.)^3
     number of atoms/cell      =            1
     number of atomic types    =            1
     number of electrons       =         4.00
     number of Kohn-Sham states=            6
     kinetic-energy cutoff     =      60.0000  Ry
     charge density cutoff     =     240.0000  Ry
     scf convergence threshold =      1.0E-06
     mixing beta               =       0.7000
     number of iterations used =            8  local-TF  mixing
     Exchange-correlation= BEEF-VDW
                           (   1   4  43  14   2   0   0)

     celldm(1)=  37.794522  celldm(2)=   0.000000  celldm(3)=   0.000000
     celldm(4)=   0.000000  celldm(5)=   0.000000  celldm(6)=   0.000000

     crystal axes: (cart. coord. in units of alat)
               a(1) = (   1.000000   0.000000   0.000000 )  
               a(2) = (   0.000000   1.000000   0.000000 )  
               a(3) = (   0.000000   0.000000   1.000000 )  

     reciprocal axes: (cart. coord. in units 2 pi/alat)
               b(1) = (  1.000000  0.000000  0.000000 )  
               b(2) = (  0.000000  1.000000  0.000000 )  
               b(3) = (  0.000000  0.000000  1.000000 )  


     PseudoPot. # 1 for C  read from file:
     /users/bkreitz1/quantum-espresso/potentials/C.pbe-n-kjpaw_psl.1.0.0.UPF
     MD5 check sum: a169b0ebad56f5ec0d79c4633f80bf22
     Pseudo is Projector augmented-wave + core cor, Zval =  4.0
     Generated using 'atomic' code by A. Dal Corso  v.6.7MaX
     Shape of augmentation charge: PSQ
     Using radial grid of 1073 points,  4 beta functions with: 
                l(1) =   0
                l(2) =   0
                l(3) =   1
                l(4) =   1
     Q(r) pseudized with 0 coefficients 


     atomic species   valence    mass     pseudopotential
        C              4.00    12.01100     C ( 1.00)

     No symmetry found



   Cartesian axes

     site n.     atom                  positions (alat units)
         1           C   tau(   1) = (   0.5000000   0.5000000   0.5000000  )

     number of k points=     1  Gaussian smearing, width (Ry)=  0.0050
                       cart. coord. in units 2pi/alat
        k(    1) = (   0.0000000   0.0000000   0.0000000), wk =   2.0000000

     Dense  grid:  1694634 G-vectors     FFT dimensions: ( 192, 192, 192)

     Estimated max dynamical RAM per process >       2.33 GB

     Initial potential from superposition of free atoms

     starting charge    3.99996, renormalised to    4.00000

     negative rho (up, down):  4.882E-03 0.000E+00


     %%%%%%%%%%%%%%%%%%%%%%%%%%%%%%%%%%%%%%%%%%%%%%%%%%%%%%%%%%%%%%%%%%%%%%%%
     %                                                                      %
     % You are using vdW-DF, which was implemented by the Thonhauser group. %
     % Please cite the following two papers that made this development      %
     % possible and the two reviews that describe the various versions:     %
     %                                                                      %
     %   T. Thonhauser et al., PRL 115, 136402 (2015).                      %
     %   T. Thonhauser et al., PRB 76, 125112 (2007).                       %
     %   K. Berland et al., Rep. Prog. Phys. 78, 066501 (2015).             %
     %   D.C. Langreth et al., J. Phys.: Condens. Matter 21, 084203 (2009). %
     %                                                                      %
     %                                                                      %
     % If you are calculating the stress with vdW-DF, please also cite:     %
     %                                                                      %
     %   R. Sabatini et al., J. Phys.: Condens. Matter 24, 424209 (2012).   %
     %                                                                      %
     %%%%%%%%%%%%%%%%%%%%%%%%%%%%%%%%%%%%%%%%%%%%%%%%%%%%%%%%%%%%%%%%%%%%%%%%


     Starting wfcs are    4 randomized atomic wfcs +    2 random wfcs
     Checking if some PAW data can be deallocated... 

     total cpu time spent up to now is       56.1 secs

     Self-consistent Calculation

     iteration #  1     ecut=    60.00 Ry     beta= 0.70
     CG style diagonalization
     ethr =  1.00E-02,  avg # of iterations =  3.5

     Threshold (ethr) on eigenvalues was too large:
     Diagonalizing with lowered threshold

     CG style diagonalization
     c_bands:  1 eigenvalues not converged
     ethr =  2.19E-06,  avg # of iterations =  8.5

     negative rho (up, down):  5.098E-03 0.000E+00

     total cpu time spent up to now is      103.2 secs

     total energy              =     -18.35883500 Ry
     estimated scf accuracy    <       0.00016808 Ry

     iteration #  2     ecut=    60.00 Ry     beta= 0.70
     CG style diagonalization
     ethr =  4.20E-06,  avg # of iterations =  3.7

     negative rho (up, down):  5.011E-03 0.000E+00

     total cpu time spent up to now is      136.3 secs

     total energy              =     -18.35883195 Ry
     estimated scf accuracy    <       0.00003643 Ry

     iteration #  3     ecut=    60.00 Ry     beta= 0.70
     CG style diagonalization
     ethr =  9.11E-07,  avg # of iterations =  3.7

     negative rho (up, down):  5.047E-03 0.000E+00

     total cpu time spent up to now is      169.5 secs

     total energy              =     -18.35766290 Ry
     estimated scf accuracy    <       0.00000555 Ry

     iteration #  4     ecut=    60.00 Ry     beta= 0.70
     CG style diagonalization
     ethr =  1.39E-07,  avg # of iterations =  3.2

     negative rho (up, down):  5.324E-03 0.000E+00

     total cpu time spent up to now is      195.0 secs

     End of self-consistent calculation

          k = 0.0000 0.0000 0.0000 (211851 PWs)   bands (ev):

   -14.1064  -5.4842  -5.4840  -5.4840  -0.6181  -0.2401

     the Fermi energy is    -5.5048 ev

!    total energy              =     -18.35766137 Ry

     total all-electron energy =       -76.121758 Ry
     estimated scf accuracy    <       0.00000062 Ry
     smearing contrib. (-TS)   =      -0.00771311 Ry
     internal energy E=F+TS    =     -18.34994827 Ry

     The total energy is F=E-TS. E is the sum of the following terms:
     one-electron contribution =     -13.98427741 Ry
     hartree contribution      =       7.57618383 Ry
     xc contribution           =      -4.15155010 Ry
     ewald contribution        =      -1.20114654 Ry
     one-center paw contrib.   =      -6.58915805 Ry

     convergence has been achieved in   4 iterations

     negative rho (up, down):  5.324E-03 0.000E+00

     Forces acting on atoms (cartesian axes, Ry/au):

     atom    1 type  1   force =     0.00000000    0.00000000    0.00000000

     Total force =     0.000000     Total SCF correction =     0.000075

     negative rho (up, down):  5.324E-03 0.000E+00

     negative rho (up, down):  5.324E-03 0.000E+00

     negative rho (up, down):  5.324E-03 0.000E+00

     negative rho (up, down):  5.324E-03 0.000E+00

     negative rho (up, down):  5.324E-03 0.000E+00

     negative rho (up, down):  5.324E-03 0.000E+00

     negative rho (up, down):  5.324E-03 0.000E+00

     negative rho (up, down):  5.324E-03 0.000E+00

     negative rho (up, down):  5.324E-03 0.000E+00

     negative rho (up, down):  5.324E-03 0.000E+00

     negative rho (up, down):  5.324E-03 0.000E+00

     negative rho (up, down):  5.324E-03 0.000E+00

     negative rho (up, down):  5.324E-03 0.000E+00

     negative rho (up, down):  5.324E-03 0.000E+00

     negative rho (up, down):  5.324E-03 0.000E+00

     negative rho (up, down):  5.324E-03 0.000E+00

     negative rho (up, down):  5.324E-03 0.000E+00

     negative rho (up, down):  5.324E-03 0.000E+00

     negative rho (up, down):  5.324E-03 0.000E+00

     negative rho (up, down):  5.324E-03 0.000E+00

     negative rho (up, down):  5.324E-03 0.000E+00

     negative rho (up, down):  5.324E-03 0.000E+00

     negative rho (up, down):  5.324E-03 0.000E+00

     negative rho (up, down):  5.324E-03 0.000E+00

     negative rho (up, down):  5.324E-03 0.000E+00

     negative rho (up, down):  5.324E-03 0.000E+00

     negative rho (up, down):  5.324E-03 0.000E+00

     negative rho (up, down):  5.324E-03 0.000E+00

     negative rho (up, down):  5.324E-03 0.000E+00

     negative rho (up, down):  5.324E-03 0.000E+00

     negative rho (up, down):  5.324E-03 0.000E+00

     negative rho (up, down):  5.324E-03 0.000E+00

     negative rho (up, down):  5.324E-03 0.000E+00

     negative rho (up, down):  5.324E-03 0.000E+00
 BEEFens 2000 ensemble energies
             -0.326073591326984E+00
             -0.639164150798754E-02
             -0.512142076173644E-01
              0.225233237056331E+00
             -0.106570811351445E+00
             -0.621363160723172E-01
             -0.261955901963623E+00
             -0.495798114547505E+00
             -0.129124016761265E+00
             -0.165215177939152E+00
             -0.183907677298462E+00
              0.428606831084846E-01
              0.891269075308398E-02
             -0.538848566922163E-01
              0.193426069304522E-01
              0.237027377470007E+00
             -0.906124571975059E-01
             -0.831935439515702E-02
              0.136818652545088E+00
             -0.543391784574230E+00
              0.287811109685330E+00
             -0.834836979671070E-01
             -0.342001725713910E-01
             -0.441703076682501E-01
              0.427017985931499E-01
             -0.139397053814438E-01
              0.433369561105003E+00
             -0.152136640944703E+00
             -0.203200146809239E-01
             -0.289178636711162E+00
              0.305009261451596E+00
              0.246035898875131E-01
             -0.214134708981315E+00
              0.644584059152942E-01
             -0.201162575454242E-01
              0.175967947385679E+00
              0.188175617708328E-01
             -0.269577795615568E-01
              0.221008902591893E+00
             -0.472879717659686E+00
              0.275878689428954E+00
              0.545612215779349E-01
             -0.980535926893806E-01
             -0.119153763725785E+00
              0.656551802892738E-01
             -0.107491815570641E+00
              0.276163450784920E+00
              0.173386110423139E+00
             -0.690464649508309E-01
             -0.165174355793855E+00
             -0.158720404124149E+00
             -0.194542076460010E+00
              0.142344169516353E+00
             -0.255679533558330E+00
              0.933017243058547E-01
              0.297026008684392E+00
              0.404798020431416E+00
              0.155219951455796E+00
              0.730470431848746E-01
              0.176127580566371E+00
              0.471351635989982E+00
              0.607139653804181E-01
             -0.272335017987657E+00
             -0.324532574622933E-01
             -0.159647726039630E+00
              0.297599945525015E+00
             -0.328711566977605E+00
             -0.286946097072920E+00
             -0.201369245393523E+00
             -0.134101786615882E+00
             -0.154200875708256E+00
              0.143648320028034E+00
              0.825265784517342E-01
              0.925090895537013E-01
             -0.200772155842622E+00
             -0.172265405444348E+00
             -0.307681291915857E+00
              0.136461042653407E+00
             -0.192402247484784E+00
              0.186090375062466E+00
             -0.573950741307850E-01
             -0.126907326916487E+00
             -0.218893977407605E+00
             -0.658782762695227E-01
             -0.937581238203835E-01
             -0.634847421834553E-01
              0.193270420807257E+00
              0.420666558952238E+00
             -0.239736912999153E+00
             -0.380876856739830E+00
             -0.813325926889792E-01
              0.527528929396921E+00
             -0.287587708079893E+00
              0.146856901403304E+00
             -0.556952399645660E-01
             -0.263190909205360E+00
              0.130146764845437E+00
              0.128435652361409E+00
             -0.714656447867570E-01
              0.124453117896670E+00
             -0.109292689454180E+00
             -0.332190223835624E+00
              0.537053128022473E+00
              0.224342011362597E+00
              0.762448113412717E-01
              0.544174903991862E-01
              0.135156964160383E+00
              0.383977864536188E+00
             -0.137908049049255E+00
              0.615912334179214E-02
             -0.668137417671925E+00
              0.772845572466031E-01
             -0.315638943324596E+00
              0.603935760728105E-01
              0.109030721251328E+00
             -0.189384399546249E+00
             -0.236997532007063E+00
             -0.995860201383980E-03
             -0.159188234094289E+00
              0.246930085528489E+00
             -0.215196386887806E+00
             -0.709108949726316E-01
             -0.192213696915746E+00
             -0.484866160006514E-02
              0.300870622479179E-01
              0.134501002632788E+00
              0.283666162779728E-02
             -0.228029964982273E-01
              0.353700538460198E+00
              0.460097989604934E+00
              0.255514885158390E+00
              0.277681156622776E+00
             -0.640030570233477E-01
              0.213510341123697E-01
              0.244672801165480E+00
              0.619386526212794E-01
             -0.389228160784029E+00
             -0.236064006958297E+00
             -0.242813108772617E+00
             -0.149302970485433E+00
              0.118398525548308E+00
             -0.611196458313331E+00
             -0.643288845130445E-01
              0.235122035048748E+00
             -0.196334704778973E+00
             -0.143244042706513E+00
              0.304888797992631E+00
              0.261680641369155E+00
             -0.139986632905290E+00
              0.219876291316290E+00
             -0.127733163192122E+00
              0.189209124534229E+00
              0.215247803415348E-01
              0.148975885849204E-01
             -0.395686548469841E+00
             -0.230018410822085E+00
             -0.393733412396271E-01
             -0.509338315335008E-01
             -0.218213016902951E+00
              0.572462274405236E+00
             -0.323784486111931E-01
             -0.112559361608727E+00
              0.180055271469136E+00
             -0.204247948834583E+00
             -0.190155804328168E+00
              0.160369445279454E+00
              0.643727151808927E-01
              0.395553369242871E-01
              0.992156472962899E-01
             -0.476526067683393E-01
              0.242904924572405E-01
              0.280913607771700E+00
             -0.115152443317787E+00
              0.115989826942333E+00
              0.437514921880776E+00
              0.163073118258409E+00
             -0.126543502554575E-01
             -0.111914766659493E+00
              0.776258383152203E+00
             -0.148309306242577E+00
              0.205545106436443E+00
              0.179188779577649E+00
              0.110620948759941E+00
              0.457914987823155E+00
              0.207226117859436E+00
             -0.169977405553825E-01
              0.134265715850151E+00
              0.270513406109696E+00
              0.186425669324297E+00
             -0.322868068514651E+00
              0.474897526869009E+00
             -0.438464806159103E+00
             -0.290218392294711E-01
              0.268201900143631E+00
              0.118754749463230E+00
              0.245793221434134E-01
              0.111053744929058E+00
              0.578361630937450E-01
              0.152219931479502E+00
             -0.306979583443845E+00
              0.218814738907251E-01
             -0.106882142558614E+00
             -0.163953894413674E-01
             -0.258429769009370E-01
             -0.863435217741282E-01
             -0.384729081198290E-01
              0.406489606902881E+00
             -0.125700384323144E-01
             -0.137877146952960E+00
              0.441154295921428E-02
              0.675861987625933E-01
             -0.331562217418253E+00
             -0.323013807384662E+00
             -0.155852734179047E+00
             -0.317706960332715E+00
             -0.934362306922698E-01
             -0.189875202403249E+00
              0.890197608572677E-01
              0.192205965176444E-01
             -0.706354798641053E-01
             -0.348595610995756E-01
              0.201644455083257E-01
             -0.334011728374964E-01
              0.325640424992007E+00
             -0.461068851145529E+00
             -0.683023044302165E-01
             -0.498915472075084E-01
              0.679523489473399E-01
              0.121028418582507E+00
             -0.259947471866603E+00
             -0.448493220708954E-01
              0.220347748242802E+00
             -0.740531015393362E-01
              0.607725028486361E-01
              0.152242930539353E+00
             -0.544700774058748E-02
              0.562767274327434E+00
             -0.193821704790786E-01
             -0.168611002592340E+00
             -0.174807668184713E-01
             -0.155766401681276E+00
              0.260322289623520E+00
             -0.280468385416792E+00
              0.819440369674957E-01
              0.207262755465113E+00
             -0.604945394453187E-01
              0.587853521371668E+00
              0.639314359724187E+00
             -0.368315668789327E+00
              0.292666634139643E+00
              0.136171373744159E+00
             -0.293141394424237E+00
              0.683328751053018E-01
              0.244277648181969E+00
              0.252889523843210E+00
              0.215366140921825E-01
              0.108824162399171E+00
              0.393095181496759E+00
             -0.113389563797935E+00
              0.372177906413048E-01
              0.313615045555595E+00
             -0.168859268485954E+00
             -0.147489445332395E+00
              0.323494214641422E+00
              0.149044259686296E+00
              0.369217804971845E+00
              0.201429225422042E+00
              0.881118936120033E-01
              0.108467977406135E+00
              0.223764814458018E+00
             -0.292610655871308E+00
              0.495577707165178E-01
              0.193141780127309E+00
              0.527710711035354E-01
              0.132292143574447E+00
             -0.331518496071632E+00
              0.148069588991781E+00
             -0.209984047827235E+00
             -0.155889556721521E+00
              0.118591819111881E+00
             -0.198546388382621E-01
              0.318150135632154E+00
             -0.395396130330694E-01
              0.158661749106903E+00
              0.135525276582686E+00
              0.369816421725391E+00
              0.251907923684616E+00
              0.266882036552220E+00
              0.199799963103557E-01
             -0.801659711589704E-01
             -0.147265497997499E+00
              0.432754987319853E+00
              0.409058036262377E+00
              0.202772495691367E+00
             -0.164713647960029E+00
              0.241157300345118E+00
              0.416501413207437E-01
              0.693958781895004E-01
              0.362647981196655E+00
             -0.219412487161172E-01
             -0.416356706944028E-01
             -0.833669657414018E-01
             -0.342422483474976E+00
              0.495612951104480E+00
              0.285294733412832E+00
             -0.343393015994322E+00
             -0.135696447195893E+00
              0.119542093562782E+00
             -0.508669621232857E-01
              0.336020897597605E+00
              0.675540550148135E-01
              0.404832414119920E+00
              0.181693182290386E+00
             -0.987770266503261E-01
              0.687820866041773E-01
             -0.352842352175815E-01
             -0.101734602247000E+00
              0.975978955918364E-01
              0.642371820523726E-01
              0.464211315417435E+00
              0.375876422838614E+00
              0.293175596463567E+00
              0.317516085957541E+00
              0.431282196702297E-01
             -0.132583387977545E+00
              0.630526903525337E-01
             -0.146632082208232E+00
             -0.305648431574339E+00
             -0.272347349749991E+00
             -0.171621843934777E+00
             -0.535937362468407E+00
             -0.212089149577866E+00
             -0.438568272657921E+00
              0.113264840910574E+00
             -0.217197825827468E+00
              0.281358553607547E+00
             -0.509416502581283E+00
             -0.150351399939902E+00
              0.147379748235280E+00
              0.108657247638320E+00
             -0.478058305006756E+00
              0.239322238843842E+00
             -0.143311575387562E+00
              0.278916205673417E+00
             -0.120443461995431E+00
             -0.395493961399763E+00
              0.873933319423392E-01
             -0.327593949370175E+00
              0.222969138059351E-01
             -0.129248970115529E-01
              0.194089284326720E+00
              0.625272350138875E+00
             -0.205666859491927E+00
             -0.178819865905729E+00
             -0.505758511357444E-01
             -0.294839212424232E-01
             -0.393450263893694E+00
             -0.269883932684706E+00
              0.240359063269916E+00
             -0.601316326873076E-01
              0.126782734373865E+00
             -0.237652935945334E+00
             -0.888657588379878E-01
             -0.196204975501422E+00
              0.225340464896816E+00
              0.412164292322506E-01
             -0.126029453264998E+00
             -0.104372006262608E+00
              0.866152210176743E-01
             -0.337036168577431E-01
              0.180299536677860E+00
             -0.133979888705853E+00
              0.887326253631313E-01
              0.184534990633995E+00
              0.459668983195929E-01
             -0.141479022602442E+00
              0.766453899380162E+00
              0.319925340876340E+00
              0.594789152034202E-01
              0.665303718455723E-02
             -0.308357044687084E+00
              0.172054681847570E+00
             -0.404481078704884E+00
             -0.186307692105833E+00
             -0.319247540716475E+00
             -0.879132859227418E-01
              0.310570457917158E+00
             -0.306270514034627E+00
              0.157801178581737E+00
             -0.292381769370329E-01
             -0.434122627780220E-02
             -0.126441112737165E+00
             -0.197274553962512E+00
             -0.494790406805028E-01
             -0.138189856751723E+00
             -0.969023829198647E-01
             -0.184704000356263E+00
             -0.148000960298045E-01
             -0.151040959083212E+00
             -0.232522309689996E+00
              0.977406042125265E-01
             -0.273526089264072E-01
              0.142268431673619E+00
              0.401451627774551E-01
             -0.388585619639297E+00
             -0.244123928459935E+00
             -0.280287367249713E+00
              0.138637929926349E+00
             -0.543959019854783E-01
             -0.294430414118342E+00
              0.293124259800411E+00
             -0.212803694818105E+00
              0.306882518222018E+00
             -0.167673425909667E+00
             -0.252450082520316E+00
              0.955714963537440E-01
             -0.368233495035622E+00
             -0.149009816362409E+00
              0.276559557172298E+00
              0.103592627985223E+00
             -0.250492960490861E+00
              0.302990159264202E+00
             -0.809000735021494E-01
             -0.207344924025375E+00
             -0.144462573503642E+00
             -0.264092945656031E+00
              0.142770140644494E+00
             -0.435234066064500E+00
             -0.364389440412078E+00
             -0.492142690350394E-01
             -0.147317423670900E+00
             -0.312442402700626E+00
              0.386102013656370E+00
              0.706107078124634E+00
             -0.770965744730687E-01
             -0.269508474102100E-01
             -0.292471798708756E+00
              0.339405569506383E+00
              0.116000616711252E+00
             -0.119294451527300E+00
             -0.172036928555755E+00
              0.707040407847916E-01
             -0.292975576104558E+00
             -0.506026749342987E-01
             -0.409250200428373E+00
              0.168131726766448E+00
              0.381535441990593E-01
             -0.312918893005945E-01
             -0.786092543461010E-01
             -0.232890651225442E+00
             -0.905913987469424E-01
              0.712390966507809E+00
             -0.734160109714694E-01
             -0.266761970752909E+00
             -0.354500462381196E+00
              0.840214571175588E-01
             -0.207417634539424E+00
              0.659907991537529E-01
              0.179250061627263E+00
              0.213676367934521E-01
              0.194804227829147E+00
              0.102874072019575E+00
              0.287032192306326E+00
              0.108220107749998E+00
             -0.196905799810363E+00
              0.320114009789863E+00
              0.160234136716216E+00
              0.601990544694154E-01
              0.172821001881693E+00
             -0.181948820249743E+00
              0.340719118150957E+00
              0.149613974278328E+00
             -0.186774330378180E+00
             -0.266353853443125E-01
             -0.874967577071919E-01
              0.611216099115464E-01
             -0.119957672271927E+00
             -0.863367739946643E-01
             -0.727273981523906E-01
              0.407934587747903E+00
              0.310664772717756E+00
             -0.300612247702847E+00
             -0.486545185894637E-01
             -0.236466640608726E+00
             -0.604246837784654E-01
             -0.963210507749804E-01
              0.702512131015689E-01
             -0.145267014019123E-01
             -0.154858769856287E+00
              0.115177370487045E+00
             -0.490889216689483E-01
             -0.198513128719217E-01
              0.437801429572142E+00
              0.616210790810744E-01
             -0.441555392483129E+00
             -0.185757475101370E+00
              0.493981310522832E+00
              0.113384381697973E+00
             -0.377021391013721E-01
              0.563683251143025E+00
             -0.627362195709706E-01
             -0.352908862020347E-01
             -0.756026554027263E-01
              0.917869065695855E-01
              0.188565690572336E+00
              0.441883251506320E-03
              0.132827360252531E+00
             -0.402505426297994E-01
             -0.222234889450354E+00
             -0.205728429725462E+00
             -0.238896962926878E+00
              0.197974752520164E+00
              0.720280179841051E-01
              0.188750758818355E+00
              0.873170179243953E-01
              0.470782666440277E+00
              0.106754584602205E+00
             -0.381037503350949E+00
             -0.172259868237193E+00
             -0.166889584070020E-01
             -0.132121434647616E+00
              0.322310334405148E+00
             -0.828776747207707E-01
              0.839494139309580E-01
              0.284262479758704E+00
             -0.421517747115306E+00
              0.734254080287311E+00
              0.102942207300244E+00
              0.113900859129628E+00
              0.199822787255135E+00
             -0.104838546872932E-03
             -0.282688091121241E-02
              0.151561709041427E+00
             -0.182762930783475E+00
              0.463252009869441E+00
              0.403465152654141E+00
             -0.200206483783960E+00
              0.865077981284370E-01
              0.365720248888288E+00
             -0.979359859388925E-01
              0.117972136795777E+00
              0.144785649475325E+00
              0.201419073926540E+00
             -0.367307090078165E+00
             -0.140466221862399E-01
             -0.106496547337964E+00
             -0.324047467117385E-01
             -0.399892851015516E-01
              0.673638236683476E-01
             -0.491999803271614E-01
             -0.160374813247844E+00
              0.110181371246782E+00
              0.185877240737387E-01
              0.268626317408128E+00
             -0.251279127271564E+00
              0.253803849449716E+00
              0.269610091986555E+00
             -0.888067151299010E-02
              0.351328826277013E+00
             -0.333210938143543E+00
             -0.525236929846169E+00
             -0.490923336670626E-01
             -0.502716209299816E-01
             -0.128461971082956E-01
              0.402434106683441E+00
              0.177169531486162E-01
              0.222888654464847E+00
              0.325064131018081E+00
              0.199011563809016E+00
             -0.390477093140151E-01
              0.285561756540073E+00
             -0.982411252592312E-01
             -0.207592804896730E+00
             -0.156402155460473E+00
              0.592153399052736E-01
              0.162853894758948E+00
             -0.138776102091076E-02
              0.149940385137494E+00
              0.503255501520894E-02
              0.260830865429634E+00
              0.681826729256213E-01
              0.416792204714491E-01
              0.238030020932132E-01
              0.142566448415060E+00
              0.208979910309618E+00
              0.525527922156164E-01
             -0.196504710659133E-01
             -0.271211956934087E+00
              0.162815855831115E+00
              0.109775233093850E+00
              0.144097420425440E+00
              0.151191236730933E+00
              0.179728164613489E+00
             -0.441745464855708E-01
              0.193703539815118E+00
             -0.150151804147885E+00
             -0.470039303836645E-02
             -0.257552771269693E+00
             -0.170651783311488E+00
              0.220343612950396E+00
             -0.434620308892055E+00
              0.110917054332484E+00
              0.652703948038087E-01
              0.444165079076900E+00
             -0.268320466709695E-01
              0.171186564953157E+00
             -0.566717278503845E-01
             -0.260554020431888E+00
             -0.300306397606022E+00
             -0.102779089449511E+00
             -0.470861341419965E+00
              0.185857066082162E-01
             -0.906427423290509E-01
              0.167262960877567E+00
              0.134972725540063E+00
             -0.159305538750455E+00
             -0.162540395565503E+00
              0.219537845576614E+00
             -0.299931756592367E+00
             -0.789766526276201E-01
             -0.816083754320584E-01
              0.150784297396498E+00
              0.538246461533747E-01
              0.236272980623559E-01
             -0.696020396723858E-01
              0.271207770170084E+00
             -0.350307643732713E+00
              0.334294859185031E-01
              0.311931635370176E+00
             -0.192570510756746E+00
              0.180506119019856E-01
              0.288492643603786E-01
             -0.319729517674089E+00
             -0.164679417478331E+00
              0.627078057161262E-02
              0.173926469709666E+00
              0.191500724903664E+00
              0.183702165427098E-01
             -0.750081821486308E-01
              0.938337351325026E-01
             -0.195940647335777E+00
             -0.407400693961393E-01
             -0.259778949470647E+00
             -0.125934622658561E+00
              0.256327243496912E+00
             -0.152465665244676E+00
              0.372027811856309E+00
             -0.133129241732894E+00
              0.154086829642488E+00
              0.135862083630582E+00
             -0.296567566430136E+00
             -0.116043860172919E+00
              0.544521691716944E-01
             -0.234121153706590E+00
             -0.216496718332566E+00
             -0.472333452430209E+00
             -0.279777016394069E+00
             -0.249804644608252E+00
             -0.225756652212740E+00
              0.335039009388349E-02
              0.151583514710544E+00
              0.835562136348044E-01
              0.170128542115047E+00
             -0.304243784143424E+00
              0.691465682329289E-01
              0.158383029851496E+00
             -0.345421811004691E+00
             -0.261412608252021E+00
             -0.198449098735890E+00
             -0.199001970816056E+00
              0.662716422397720E-01
             -0.284980724831629E-01
             -0.191795574181965E+00
              0.119133423204901E+00
             -0.119712174211390E+00
              0.262836916082022E+00
             -0.444415827501988E+00
              0.342167814329242E+00
             -0.848251488562914E-01
             -0.234074476692479E+00
             -0.141303633814920E+00
             -0.196600926258232E-01
              0.259935527361216E+00
             -0.344841864678941E+00
             -0.609955507782926E-01
             -0.814155789682891E-01
              0.188213821692404E+00
              0.397456144657372E+00
             -0.523446362542057E+00
              0.456642035228522E+00
              0.167892489243194E+00
             -0.391199039162095E+00
             -0.141369170359553E+00
              0.408304890290518E+00
              0.279365875474071E+00
             -0.118124054856395E+00
             -0.345327031631197E-01
              0.107972951397822E+00
              0.422668756193995E+00
             -0.312310630517786E+00
              0.563788626447822E-01
             -0.475422641807893E-01
              0.105875064178360E+00
             -0.348935662623586E+00
             -0.687194857969933E-02
             -0.116438478434580E+00
              0.243994093725242E+00
              0.167030987941665E+00
             -0.462845397449192E+00
             -0.237113644158580E+00
             -0.916128742412372E-01
             -0.248021116232166E+00
             -0.682096124673984E-01
             -0.658870837065683E-01
              0.239485687108441E+00
              0.211940430451439E+00
              0.497746873680704E-02
             -0.237257043136430E+00
             -0.445674673411794E+00
              0.267125283876247E+00
             -0.222783570227993E+00
             -0.197601017685610E+00
              0.378370585631187E-01
             -0.208169391648595E+00
             -0.204605713128706E+00
             -0.173857627503470E+00
             -0.288140299148149E+00
             -0.107986041451498E+00
             -0.249811279379771E+00
              0.271729333016125E+00
              0.279956901758322E+00
             -0.715313803525597E-01
             -0.869960208590159E-01
              0.318606831859531E-01
              0.207143474832205E+00
             -0.420056072451314E+00
             -0.132151715097431E+00
              0.243947530332772E+00
              0.386620666339259E+00
             -0.248429779425039E-01
              0.436252374601072E-01
              0.280213027498220E+00
              0.649165687354808E-01
              0.348697365164277E-01
             -0.191739528673911E+00
              0.505403565960467E-01
             -0.160647426692253E+00
             -0.173683355712162E-01
             -0.120198779821253E+00
             -0.595111588861115E-01
              0.138639841815710E+00
              0.400539720934483E+00
             -0.518276784547407E-01
              0.366558370630177E-02
             -0.471664855874635E+00
             -0.929901309569119E-01
             -0.178647595959273E+00
             -0.189968202358721E-01
             -0.260847249840297E+00
              0.491153622535310E+00
              0.447408564744172E+00
              0.100186306047890E+00
             -0.137314996480491E+00
              0.103033470395853E+00
              0.912841662044622E-01
             -0.231742801614859E+00
             -0.584033500497854E-01
              0.115820349784965E+00
              0.435703786391745E-01
              0.252335359379597E+00
              0.188561711800137E+00
             -0.974979977442527E-01
              0.772913785959137E-01
             -0.501859111745860E+00
             -0.832718531992788E-02
              0.457220930955898E+00
              0.100838169445943E+00
             -0.269056022987453E-01
              0.132673126393873E+00
             -0.120762374649260E+00
              0.417276932996967E+00
             -0.116151508970811E+00
              0.377769438514202E+00
              0.196204043969463E+00
             -0.234191353315774E+00
              0.169611883731124E+00
             -0.131242433677375E+00
             -0.340078611272269E+00
             -0.321446876927276E-01
             -0.276995795807042E+00
             -0.262086738319193E+00
             -0.184262223244525E-03
              0.213195587811385E+00
             -0.883527984443171E-01
             -0.141449366171852E+00
              0.277957492888556E-01
             -0.317869739431347E+00
             -0.399391482225284E-02
             -0.446068220835443E+00
              0.254769977512409E+00
             -0.246465903213768E-01
             -0.256761286342136E+00
             -0.570258196509048E-01
              0.808883756037879E-01
             -0.212424870516845E+00
             -0.220188855843979E+00
              0.477991506311189E+00
             -0.155845315919806E+00
             -0.161638787490149E+00
              0.179738694205119E+00
             -0.136330154728863E+00
              0.312145224339704E+00
             -0.165036424687708E-01
             -0.942480896230946E-02
              0.575581515979691E+00
             -0.197331709026483E-01
             -0.197386342438963E+00
             -0.268033100894245E+00
             -0.250683126376594E+00
             -0.195755930530181E+00
              0.154455710554644E+00
              0.176862104394623E+00
              0.151696092590923E+00
              0.370039983454131E+00
              0.398620947668237E-01
              0.122690001031937E+00
             -0.273149598080461E+00
              0.133194936233991E-01
             -0.595027421746519E-01
             -0.137793510311367E+00
             -0.655396922088736E-01
              0.171140843076677E+00
              0.195511683622522E+00
             -0.248772189819245E-01
              0.791294041511112E-01
              0.129678799223280E+00
              0.152789116144052E+00
             -0.122296080872215E+00
             -0.409901582224605E-01
             -0.373417208729987E-02
             -0.136981735945695E+00
              0.132561277545618E-02
             -0.237916541869948E+00
              0.414947553984940E+00
              0.314349549083007E+00
             -0.104034096118732E+00
              0.914861609311461E-01
             -0.353221615116490E-01
             -0.190598140988739E+00
              0.201615781356791E+00
             -0.417029089398409E-01
              0.188245398684172E+00
             -0.223475962706940E+00
              0.870237760606536E-01
             -0.351861719082178E-01
             -0.261096270289689E+00
             -0.113027572433783E+00
              0.112450087622207E+00
             -0.509649585798027E+00
              0.190939604753235E+00
              0.231532284154194E+00
             -0.542607998108612E-01
             -0.434311075049422E-01
             -0.220143801454984E-01
              0.144095769201559E+00
             -0.181185832250114E+00
              0.143299819993048E+00
              0.166470118463563E+00
             -0.416796120149344E+00
             -0.195967090968315E+00
              0.119649173672773E+00
             -0.690277044752745E-01
              0.276919714602173E+00
             -0.319397399398323E+00
             -0.723160091714812E-01
             -0.197232399522679E+00
             -0.677589642014092E+00
              0.395482298383144E+00
             -0.297779644796906E+00
             -0.353406579829224E+00
              0.235409962226562E-01
              0.655096163778989E+00
              0.442092608258090E-01
             -0.184394770649257E+00
             -0.836055265193258E-02
             -0.146019147321044E-01
             -0.422831954638134E+00
             -0.256208608106850E+00
              0.432392909778110E+00
             -0.756464267106587E-01
             -0.170233726890888E+00
              0.223562951100563E+00
             -0.161773561084464E+00
              0.164634021034283E+00
              0.235458801976290E+00
             -0.252573257051621E+00
             -0.151000174098338E+00
             -0.153590845361133E+00
             -0.105700098034354E+00
             -0.991089993622983E-01
             -0.121869704087058E+00
              0.113428512503560E+00
             -0.189412575166383E+00
              0.138160055214898E+00
              0.259716457059726E+00
             -0.138688756652336E-01
             -0.117394721220407E+00
              0.916215972964152E-01
              0.284307008116632E+00
              0.283341017472849E+00
              0.812490910029173E-01
             -0.760302734022682E-01
             -0.761184122491678E-01
             -0.282320943814369E+00
              0.216494233774570E+00
             -0.123124356661879E+00
              0.136683076481056E+00
             -0.611919143189006E-01
              0.112516648732840E+00
              0.955379341807245E-01
             -0.418269146488397E+00
             -0.119265658422663E+00
             -0.408146434595218E+00
             -0.223376589199861E+00
              0.155923954076191E-01
             -0.111689824351692E+00
              0.188155936424280E+00
             -0.140612689646517E+00
              0.202647263043325E-01
              0.259554691780624E-01
              0.341281290376254E+00
              0.163376207740832E+00
             -0.181929570831047E+00
             -0.220674427410141E-01
              0.882708567766974E-01
              0.193849917754049E+00
             -0.491759183501572E-02
              0.296045351493218E+00
              0.133246867549602E+00
              0.462483129635140E+00
              0.159045407625438E-01
              0.297209527460261E+00
             -0.138392234166580E+00
             -0.197444272990631E+00
             -0.137926109980535E-03
              0.646719907939639E-01
              0.105258579255005E+00
             -0.143333625542280E+00
             -0.526296289545808E-01
              0.128874403890046E+00
             -0.252459137720429E+00
             -0.326189773710659E+00
              0.413264426402436E+00
             -0.208392446790442E-01
             -0.165704229406133E+00
             -0.290367386762117E-01
             -0.708896552714120E-01
              0.248903441359219E+00
              0.194262077289226E+00
             -0.102207650960902E+00
              0.108630259145499E-01
             -0.122288204268732E+00
             -0.182925409474924E+00
             -0.107833142148262E+00
             -0.501450677433994E+00
              0.268860524937972E-01
             -0.300330866348306E+00
             -0.311263615240064E+00
             -0.165337246058375E+00
              0.136741379306012E+00
             -0.192521242230976E+00
              0.143218390168218E+00
             -0.339354371773011E+00
             -0.161859841355083E-03
             -0.216514741146447E+00
              0.463264443266731E-01
              0.499883828751096E-01
              0.198383245585623E+00
             -0.115651445859562E+00
             -0.875206382058198E-01
              0.167550567988975E+00
              0.298740562242791E+00
              0.170054856726955E+00
              0.706343287660700E-01
             -0.388722423611688E+00
             -0.898250173316674E-01
             -0.127529578769809E+00
             -0.311663361697204E+00
              0.211702215913910E+00
             -0.176844784631301E+00
             -0.481642606327148E-01
             -0.148769798483510E+00
             -0.496756786974272E+00
              0.288983150813550E+00
             -0.102039490686688E+00
              0.185692070334891E+00
             -0.375329244715306E+00
              0.334548371174531E+00
              0.353420455374187E-01
             -0.115204098398316E+00
              0.620557564113153E-01
             -0.880870814086108E-01
             -0.291377709308693E+00
              0.884920624351162E-01
              0.229015170014363E+00
             -0.187807089863830E-01
             -0.174095154236466E+00
             -0.882583751993449E-01
              0.118658152827730E+00
              0.205883195779790E+00
              0.306285037462744E+00
              0.102322466407797E+00
             -0.124053673442255E+00
              0.546970256762687E+00
              0.965381254157643E-01
              0.271403615329123E+00
             -0.873057233116443E-01
              0.140388989530056E+00
              0.143429645726901E+00
             -0.309595021732891E+00
             -0.111847437586584E+00
             -0.209422217074208E+00
             -0.236258767522582E+00
             -0.706165026330372E-01
             -0.242207637166496E-01
             -0.264482061191974E+00
             -0.554171129993578E+00
             -0.135759973115001E+00
              0.654187611647412E-01
              0.376993406660868E-01
              0.103104005294333E+00
              0.186905386290649E+00
              0.419375414435099E-01
              0.151444526637865E+00
             -0.222989224610040E+00
              0.208777839561185E+00
             -0.189795707466711E+00
             -0.325970559445996E+00
              0.110524868780164E+00
             -0.230582813742183E+00
             -0.204691155593611E+00
             -0.809807244427956E+00
             -0.322726646352335E-01
              0.440219534892832E+00
              0.182490916493533E+00
             -0.457675389646308E-01
             -0.512160994196780E-01
              0.254801595849348E+00
              0.323132650358464E+00
             -0.185809849446527E+00
             -0.706527913126920E-01
             -0.193548450014360E+00
             -0.161973915314557E+00
             -0.149645167231309E+00
              0.378331116326352E-01
              0.328308769487028E+00
             -0.327468886170391E+00
             -0.277437316704291E+00
              0.349108537597056E-01
             -0.839931183417550E-01
             -0.924217887772847E-01
             -0.442027682230414E+00
              0.343587247936777E+00
              0.797742816633336E-01
              0.578589421877363E-01
              0.264709213612549E+00
             -0.171842491300967E+00
              0.176808295670085E+00
              0.142808429164736E+00
             -0.102574002214886E-01
             -0.421389691736172E-01
              0.331639198339139E-01
             -0.904210213312086E-01
              0.283963160652654E+00
             -0.195509997814345E+00
              0.256813803203613E+00
              0.435435955286489E-01
              0.984339461562145E-01
              0.952326800599059E-01
             -0.407362428276085E+00
              0.592917873822127E-01
             -0.333735712669979E+00
             -0.239298505959826E+00
             -0.228992213258558E+00
             -0.278670576055420E+00
             -0.621616627825716E-02
              0.108388583175053E+00
              0.252744364778911E+00
              0.304212862613776E-01
              0.745586249594238E-01
             -0.342232100315148E+00
             -0.143687879217795E+00
              0.154101070895424E+00
             -0.485433765918050E-01
             -0.322827981879379E-01
             -0.528667805260548E-01
              0.179285233755075E+00
             -0.449376024299639E+00
              0.729347090682330E-01
              0.891184993624905E-01
              0.196426104463638E+00
              0.186343739521132E+00
             -0.280108861789836E+00
              0.914439957505728E-01
              0.432171864471301E-01
              0.329129491791789E-01
              0.447276436843458E-01
             -0.103583467374840E+00
             -0.247841911310106E+00
              0.876024605015265E-01
              0.289723700024961E+00
              0.159962648937815E-01
              0.793159408970805E-01
              0.669456928041980E-01
             -0.170362052557152E+00
             -0.188390056614346E+00
             -0.634181763643706E+00
             -0.183706837603019E+00
             -0.325688504340659E+00
             -0.285502549631345E-01
             -0.356386181671049E+00
              0.375410861555111E+00
             -0.178934153484543E+00
             -0.276330577711722E+00
             -0.787048798375219E+00
              0.330962791192104E+00
              0.836423953729173E-01
              0.931101547367363E-01
             -0.297771366905405E+00
              0.177374308479428E-01
             -0.796183813683401E-01
             -0.143830330083283E+00
              0.444455346241178E-01
              0.164891548097584E+00
              0.183289597000963E-01
             -0.116818964061607E+00
              0.365245044140492E-01
              0.834956418114796E-02
              0.243599056856199E-01
             -0.343145229009396E+00
              0.380427637722032E+00
             -0.205563563318767E+00
             -0.128881581656213E+00
             -0.294401705037399E+00
             -0.582307775154532E+00
              0.125077969653851E-01
             -0.311458273440580E+00
             -0.720400960227716E-01
              0.145846873395043E+00
             -0.147469388105038E+00
             -0.856869426294935E-01
             -0.674630310219481E-01
             -0.796658396794163E-01
              0.305898292477459E-01
              0.259510618856540E+00
             -0.237698898680221E+00
              0.551424822338794E+00
             -0.147085866166353E+00
              0.147221673375493E+00
             -0.128885637301412E+00
              0.590695549416169E-01
             -0.593324150774499E-01
              0.218151819854735E+00
              0.308718768978804E+00
              0.970794798032518E-01
              0.202552290097660E+00
             -0.125301725961158E+00
             -0.465810619096739E-01
             -0.112911985822971E+00
              0.318735283238486E+00
              0.282871233420209E+00
              0.197079031248223E+00
             -0.589070366563753E-01
             -0.125077278944139E+00
              0.130805129166560E+00
             -0.154089391899126E+00
             -0.812332281023402E-01
             -0.235941336446948E-01
             -0.198622899546997E+00
              0.239663303485295E+00
             -0.702289972972300E-01
              0.183468690936249E+00
              0.130551412924845E+00
              0.597628798005734E-01
             -0.172084255779459E+00
              0.115724986217134E+00
             -0.673004179985233E-01
             -0.281954074432080E-01
              0.678918208233847E-03
             -0.231089184307007E+00
              0.382773473487430E+00
             -0.128989753772371E+00
              0.287100449897659E-03
              0.136605927910511E+00
              0.100379226365644E+00
              0.392239138097015E+00
             -0.120785815403051E+00
              0.375074555386579E+00
              0.341803670392319E+00
             -0.469766757234491E+00
              0.283335659317961E-01
             -0.878637096792256E-01
              0.758805007772564E-01
              0.242208701617275E-01
              0.132286871814224E+00
              0.329329518793869E+00
              0.540053203737306E+00
             -0.359684715070387E+00
              0.380275593750339E+00
             -0.521907984723510E+00
             -0.461340953183233E+00
             -0.878639542197905E-01
             -0.213847175494664E-02
              0.424718688575949E+00
              0.139708317901335E+00
             -0.544058512401739E-01
             -0.388381162835572E+00
              0.329714904785170E+00
             -0.190574397897793E+00
              0.289929753882356E-02
             -0.295115699119105E-01
              0.652962644781542E+00
             -0.102064977489649E+00
             -0.529698706688337E+00
              0.155702487982418E+00
             -0.829706022839732E+00
              0.607684336161393E-01
             -0.200498474514221E+00
             -0.896730619912618E-01
             -0.121390046500800E+00
             -0.312951170300163E+00
              0.180457023878591E+00
             -0.195207310411346E+00
             -0.761884049416990E-01
             -0.374107181933514E+00
             -0.158876756697308E-01
             -0.276322984607137E+00
             -0.395139903824032E+00
             -0.489246910757708E+00
              0.242114275675599E-01
             -0.204936583866469E+00
              0.853865857758498E-01
             -0.781500733304383E-01
             -0.422292079368366E+00
             -0.322765508205605E+00
             -0.286342588822682E+00
             -0.316498303804682E+00
              0.260935553905488E+00
              0.127178682389071E-01
             -0.260761513209064E+00
             -0.128259699000702E+00
             -0.153798997430217E+00
              0.224494823331592E+00
             -0.150910370945006E+00
              0.231870336690332E-02
             -0.180878614841449E+00
             -0.203042424717764E+00
             -0.220834621597072E+00
              0.202321716376074E+00
             -0.559689886351222E-01
             -0.477605655495569E+00
              0.376857373151756E+00
              0.216533293319919E+00
              0.194737835416015E-02
             -0.419173825432926E+00
             -0.373514794527605E+00
              0.149492284725719E-01
             -0.208268012786084E-02
             -0.177343561043187E+00
             -0.207484042521151E+00
              0.135093593631474E+00
             -0.159359362433755E-01
              0.146499176071785E+00
              0.240012487303385E+00
              0.173111147841348E+00
              0.117104758634307E+00
              0.100403462590451E+00
             -0.118488013306691E+00
             -0.882178058698087E-01
             -0.101208537936334E+00
             -0.205381886041242E+00
             -0.231280479231886E+00
             -0.285160751437082E+00
             -0.174067531370802E+00
             -0.675956463644425E-01
             -0.346010238541184E+00
             -0.117843096732431E+00
              0.199360208015280E+00
             -0.468858771017707E+00
              0.208180389103765E+00
              0.175671897996408E+00
             -0.386138522851258E+00
             -0.276116123891542E+00
             -0.129305637578617E+00
              0.401457287824253E-01
             -0.217828161660196E+00
              0.394485543319525E+00
              0.352879136542837E+00
             -0.392854655914127E+00
              0.188727270045594E+00
              0.183928152442263E+00
              0.442481221212948E-01
              0.874478012875259E-01
             -0.220584657087404E+00
             -0.903829149810615E-01
              0.392384930625225E-01
              0.106683625394159E+00
              0.197364018842849E+00
             -0.270151013204641E+00
             -0.772711331764870E-01
              0.716204892288357E-01
              0.987200542116931E-01
             -0.187987446760351E+00
              0.937525848819477E-01
             -0.115189003486277E+00
             -0.890944105855630E-01
             -0.163986400928493E-01
             -0.313390610983783E+00
              0.302793806161133E-03
             -0.632332335838548E-02
             -0.895695659856255E-01
              0.102957325352954E+00
             -0.259003101055100E+00
              0.309057643490724E+00
             -0.995846805929688E-01
             -0.702551185847712E+00
             -0.433532823295351E+00
              0.164736296939752E+00
             -0.232923693396271E+00
             -0.113540669335181E+00
             -0.959872409268284E-01
             -0.103401543182853E+00
             -0.537394233904833E+00
              0.206015414318812E-01
             -0.314112733033033E+00
             -0.183500796392011E+00
              0.817615117148345E-01
              0.417354335466848E+00
              0.277256679530871E-01
              0.140120218135254E-01
              0.311412913260954E+00
             -0.331070124208296E+00
              0.119737002589771E+00
              0.191317276393169E-01
             -0.288688235234239E+00
             -0.191116449066334E+00
              0.905100071221705E-01
              0.284082377418017E-01
              0.989232347897558E-01
              0.677756625009276E-01
             -0.120322191562234E+00
             -0.180469519359672E+00
             -0.255687725927509E+00
              0.264135912199563E+00
             -0.355134347345774E+00
             -0.258465167896864E+00
              0.621154245194633E-01
             -0.416344928707355E+00
              0.133374938131308E+00
              0.316266690940924E+00
             -0.822160952892991E-01
              0.130615671358595E+00
             -0.198940923687607E+00
             -0.117634044262824E+00
              0.598146548648555E-01
              0.178196929567548E+00
             -0.177932535284597E+00
              0.978841034768240E-01
             -0.802144702714154E-01
              0.824252094263656E-01
              0.729845349087940E-01
              0.283201158667361E-01
             -0.836782308546250E-01
              0.290334205128961E-02
              0.363424648411161E-01
              0.140232079193968E+00
             -0.356244747540716E+00
             -0.302970447195268E-01
              0.260758077151778E+00
             -0.425209710198585E+00
              0.172238349920612E+00
             -0.553479614042220E+00
             -0.726769982442464E-01
             -0.644724236902496E-01
             -0.145769137630847E-02
             -0.695498357710365E-01
             -0.147587497433336E+00
             -0.599811612067280E-01
              0.489092767042524E-01
             -0.141493983202613E+00
              0.575998813588099E-01
              0.474061593741354E+00
             -0.273313715786306E+00
             -0.119730921238167E+00
              0.228076690798025E+00
              0.971375000350148E-01
              0.234471087595943E+00
              0.119992237739637E+00
              0.547813985801162E-01
             -0.785847131630357E-01
             -0.259063099896770E+00
             -0.230359817694815E+00
             -0.217254702866871E+00
              0.463002543696981E-01
             -0.217344264882512E+00
             -0.526865362368319E-01
              0.222762174097348E-01
              0.130045925361388E+00
             -0.253219638328062E-01
              0.303275933844144E+00
             -0.366072570458435E+00
              0.108289570366078E-01
             -0.441609942307738E-01
              0.168651742813839E+00
             -0.201061330573925E+00
             -0.139955312870029E+00
              0.383173820527803E-01
              0.212822540230755E+00
              0.395105071572317E+00
              0.131932953437369E+00
              0.247587731033734E+00
             -0.116806032693621E+00
              0.313585089265291E+00
              0.319927666431254E+00
              0.114680716394959E-01
              0.131916224327079E+00
              0.184008403103202E+00
             -0.106967517232079E+00
              0.101527199727604E+00
              0.342114489385033E+00
             -0.932363909524052E-01
             -0.999333478658881E-02
             -0.310645158533584E+00
              0.967093137006815E-01
             -0.884596437247763E-01
              0.117743720729492E+00
             -0.896002244105032E-02
             -0.196331335602882E+00
              0.228883895739410E+00
              0.191108706024265E+00
             -0.171877650510635E+00
              0.868001306424419E-01
             -0.306902593611372E+00
             -0.281610193191806E+00
              0.123245782685256E+00
             -0.344295254534699E+00
             -0.184413130750839E+00
             -0.252638316121891E-01
              0.443634783610554E+00
             -0.117444760611984E+00
             -0.566892535818956E-01
             -0.123805991807293E+00
              0.562806819317699E+00
              0.920267559148567E-01
             -0.226024413940855E+00
              0.366910581190624E+00
              0.314980857706842E+00
              0.167583765904273E+00
              0.413585130259950E+00
              0.463424751363184E+00
              0.349189795436755E-02
             -0.141310559817065E+00
             -0.107103958994967E+00
              0.148671954407974E+00
              0.207249132665522E+00
             -0.413680872544009E-01
             -0.120875701773758E+00
             -0.276899588940276E+00
             -0.851485141374521E-01
             -0.237066826325508E+00
              0.181675437834027E+00
              0.946462812132216E-01
              0.312326149719055E+00
              0.928237965994458E-01
             -0.105405834702787E+00
             -0.504347481839827E-01
              0.195199605755996E+00
              0.361311010707936E-01
              0.335803663181744E+00
              0.270896269650517E+00
             -0.241375127120677E-01
             -0.470740427798522E-01
             -0.530192807662776E+00
              0.246362007063879E+00
              0.143751308542837E-01
              0.298266890888074E+00
             -0.150819632665503E+00
             -0.345601186371832E+00
              0.904273463249043E-01
              0.379400827629635E+00
             -0.119646013760076E+00
              0.328825556231559E+00
             -0.356153183537537E+00
             -0.140226704116889E+00
             -0.447754484546560E+00
              0.578974193165418E-01
             -0.116537805635497E-02
              0.621051655601520E-01
             -0.316728916483738E+00
              0.495392539049863E+00
              0.280759977521431E+00
              0.166519673931267E-01
             -0.310726112510330E+00
              0.917338233527547E-01
             -0.691860270765196E-01
             -0.881657319768301E-01
             -0.160185829041087E+00
              0.821823707818208E-01
             -0.109046842647823E+00
             -0.895188723893797E-01
              0.125668153936661E+00
              0.115931230552362E+00
             -0.474116165403939E+00
              0.946372396555833E-01
              0.335901375923063E+00
              0.218571064690094E+00
             -0.646886569624289E-01
             -0.313271936905435E-01
             -0.187024077599271E+00
              0.274974122550809E+00
              0.187921755544402E-01
             -0.113530387007277E-02
             -0.336187837964026E-01
              0.558057145791965E+00
             -0.563129020439102E-01
              0.890608204022398E-01
              0.392007107067461E+00
              0.472032920879345E+00
              0.302033469788582E+00
              0.177886569449165E+00
             -0.336436421617304E+00
             -0.237304340799985E+00
              0.196967485892782E+00
              0.508970754133922E-01
              0.163217050771947E+00
              0.423622392472648E-01
              0.336220853986901E+00
             -0.404159249389156E+00
             -0.252879470283862E+00
             -0.561107149047944E-01
             -0.465122386425729E+00
              0.112919587597987E+00
              0.256788481480487E+00
             -0.434380376005985E-01
             -0.964252645624954E-01
              0.849614972038977E-01
              0.667803970205583E+00
              0.178949194235731E+00
              0.977509751068606E-01
             -0.232350112473198E+00
             -0.283058810400369E+00
             -0.607980590046318E-01
              0.144018762854386E+00
             -0.329144330010154E-01
              0.160870357983420E+00
              0.191946662165110E+00
             -0.292158455355634E+00
              0.143384598778356E+00
              0.118468412816771E+00
              0.275038960416603E+00
             -0.561721530326884E-01
              0.450972818636792E-01
             -0.338608588978707E-01
             -0.224690974213123E+00
             -0.370009535651810E+00
              0.378303744596406E+00
             -0.535347070983045E-01
             -0.249756664457577E+00
              0.551434608856211E-01
             -0.167316505162856E+00
              0.417645386865118E+00
             -0.125950546505457E+00
             -0.193594244105594E+00
              0.200064406447460E+00
             -0.824603500193350E-01
              0.245938312041367E+00
              0.306953810643920E-01
              0.440829990339772E+00
              0.274512966774115E+00
              0.941972584864435E-01
             -0.214430703704045E+00
              0.148490043533285E+00
             -0.274271582407843E+00
             -0.115485010466273E-01
              0.333269603639937E+00
             -0.125088275544486E+00
             -0.220510988443964E+00
             -0.121964757319057E+00
              0.254354674944205E+00
              0.519097259640807E-01
             -0.392759414329134E+00
              0.176113182788632E+00
              0.136785653657734E-01
              0.684780813603787E-01
             -0.249639325123394E+00
              0.717056012925039E-01
              0.174211564087643E+00
              0.212122233173962E+00
              0.342362371633726E+00
              0.199643619895537E+00
              0.409798051719119E-01
             -0.294110467922350E+00
             -0.201804731645868E+00
             -0.299251542870383E+00
             -0.100426323840029E+00
              0.182594977728540E+00
              0.474209850102286E-02
              0.259872471243860E+00
             -0.159210927003316E+00
              0.864531377821387E-01
             -0.144723644385045E+00
             -0.138423679603614E+00
              0.299332635689941E+00
              0.231183305957541E-01
              0.321752408612911E+00
              0.158701440971472E-01
              0.848389509598891E-01
             -0.816741674711128E-01
              0.302539385829118E+00
             -0.101793441915084E+00
              0.117472921836595E-01
             -0.391586395686194E+00
             -0.230464204557608E-01
              0.343429198750885E+00
              0.305479546241834E+00
              0.137015841905098E+00
             -0.822089093927183E-01
              0.437995551734801E-01
             -0.133223103108633E+00
             -0.131957408654834E+00
              0.453454738908850E+00
              0.573030535150090E-01
             -0.163409548178198E+00
             -0.519205462266122E+00
             -0.184948476327741E+00
             -0.195036030048862E+00
             -0.286111192361175E+00
             -0.310900528174706E+00
             -0.355578298302709E+00
             -0.233373006594215E+00
             -0.117179894111620E+00
             -0.249536790616867E+00
              0.217310096937903E+00
             -0.615783602496118E-01
             -0.369290216920822E+00
              0.199503968582326E+00
             -0.188139193830504E+00
             -0.399941628691886E+00
              0.512863631774550E+00
             -0.142654312247058E+00
              0.538884172901362E-01
              0.163879052231743E+00
              0.102600122132833E+00
              0.145234293297403E+00
             -0.810466916514552E-02
              0.418165401803489E-02
             -0.740195574465901E-01
             -0.382046782823864E+00
              0.467452280277985E-01
             -0.590557364948658E+00
              0.397180615699132E+00
             -0.201917745440197E+00
             -0.978116543267045E-01
             -0.113853576022857E+00
              0.138897499504279E+00
             -0.669911494406003E-01
              0.124315381311661E+00
             -0.304716225759859E+00
              0.178147638806327E+00
              0.236181331985897E+00
              0.212039203482342E-01
              0.587700456371315E-01
              0.106520058819287E+00
              0.592854141021186E-01
              0.134151209186425E+00
             -0.151271453941516E-01
             -0.416849308967301E+00
              0.514057534096692E-01
             -0.208108405323779E+00
             -0.215927173740209E-01
              0.301692604409867E+00
             -0.391900784871811E+00
              0.298982326930732E-01
              0.222047117097228E-01
              0.487845741344917E-01
              0.148860380594365E+00
             -0.703034565331827E-01
              0.424333613735416E+00
              0.155829273587904E+00
             -0.554252978097240E-01
             -0.322944335101660E-01
              0.391891549095527E-01
              0.390294038719872E+00
             -0.227339169602976E+00
             -0.494679179206529E+00
              0.149235311866249E+00
             -0.339993564877424E-01
             -0.904169849295855E-01
              0.105559097199369E+00
              0.365421549999715E+00
              0.202334631771313E+00
             -0.895273797113489E-01
             -0.282772590014406E+00
             -0.773200485230021E-01
              0.129812023133903E+00
             -0.101898688546893E+00
             -0.385457628890454E+00
             -0.651133668101803E-01
             -0.516297781282319E+00
             -0.266317643547984E+00
              0.464432143689718E+00
             -0.279480861306154E+00
             -0.371999184233598E+00
             -0.269979467544092E+00
             -0.214282579437040E+00
              0.181505211314274E+00
              0.430841082224825E+00
             -0.739062813287672E-01
              0.132053631955946E+00
             -0.109945061533276E+00
             -0.344993456054711E+00
              0.270735512516151E+00
             -0.251528628063672E+00
              0.101388402214895E+00
              0.116616620962776E+00
             -0.864328693710978E-01
              0.166671044326782E+00
              0.182023474960245E+00
              0.660121799265573E+00
             -0.341075344817137E-01
             -0.315478679705470E+00
             -0.343811277811548E+00
             -0.111314576390915E+00
             -0.245733560800029E+00
              0.449844535469752E+00
             -0.237718135642081E+00
              0.483897167918726E-01
             -0.706775263994563E-02
             -0.886867208222692E-01
             -0.451347122974303E+00
             -0.335217792650870E-01
              0.512369522947370E+00
              0.133914136878127E+00
              0.310081780684466E-01
             -0.320812217383530E+00
             -0.267210459186115E+00
             -0.118219769678119E+00
              0.224765169201295E+00
             -0.142131131716306E+00
              0.496378893117446E+00
             -0.265220169774578E+00
              0.104124595439424E+00
             -0.415010022510458E-01
             -0.299268154924432E+00
              0.414020066353913E-01
             -0.297523186779308E+00
             -0.366759857989595E+00
              0.709820313351814E-01
              0.482764968699079E-02
              0.250581743682378E+00
              0.146582000514582E+00
             -0.191151702269858E+00
              0.997749669759878E-01
             -0.473217620042637E+00
             -0.226155338586894E+00
              0.470855837297633E+00
             -0.106696712489710E-01
             -0.499281026638876E-02
             -0.101391035629297E+00
             -0.567936999217711E-02
             -0.784154817811813E-01
              0.494085654127270E+00
              0.214494572859207E+00
             -0.246072787554867E-01
              0.312270607763534E-01
             -0.175250988675223E+00
             -0.378521044156970E-01
             -0.300626071345889E+00
              0.278165261288434E+00
              0.411970940797871E-01
              0.303712203540529E-01
              0.106795116437716E+00
             -0.977890309251527E-01
             -0.129040329979886E+00
              0.808095895485524E-01
             -0.594406610204474E+00
             -0.375283923516307E-01
             -0.625662301291836E-01
             -0.267807646542885E-01
              0.222752943173509E+00
              0.343156692671851E+00
              0.959804616664561E-01
             -0.466058418454659E+00
              0.318663234222360E+00
             -0.118023445087653E+00
             -0.186275991274219E+00
             -0.440929985459261E+00
             -0.103019740805835E+00
              0.345482389236448E+00
              0.193335252961262E+00
              0.939794028553078E-01
              0.188046952400252E+00
             -0.291223883506954E+00
             -0.259242898988573E+00
              0.341530695127690E+00
              0.206896213509568E+00
              0.227992041891680E+00
              0.797501603929880E-01
              0.635373098019689E-01
              0.260778303589922E+00
              0.496649422204967E+00
             -0.603591880874962E-01
              0.227122274313934E+00
             -0.198024063688590E+00
             -0.222695564338316E+00
             -0.191822118284773E+00
             -0.186550421220115E+00
             -0.776862365569144E-01
             -0.224663813553591E+00
             -0.900999216868732E-01
             -0.638293684809701E+00
              0.158779357242586E+00
              0.147764353012983E+00
             -0.188907419362868E-01
             -0.186127174643029E+00
             -0.797188555717754E-01
             -0.302324030624638E+00
              0.142894853241553E-01
              0.397752943159466E+00
             -0.866386128358094E-01
             -0.101320419419556E+00
              0.904367705442737E-01
             -0.271157040893471E+00
              0.421434091521769E+00
              0.748981607902377E-01
              0.520328445765461E-02
              0.262223936064783E+00
             -0.540304985196776E-01
              0.305643383697813E+00
              0.117290463596388E+00
              0.965800610114675E-02
              0.752258395272951E-01
             -0.802311150265653E-01
              0.322413035682803E+00
              0.322430687900290E-01
              0.125441257824021E+00
             -0.407490671370287E-01
              0.528610128919282E-01
             -0.479073044756618E+00
             -0.179688359108819E+00
             -0.262774482768786E+00
              0.244982406403275E+00
             -0.191861129414910E+00
             -0.259019684214652E+00
              0.313159262361443E+00
             -0.653780326166319E-01
              0.203699177408015E+00
             -0.439911713187991E+00
              0.787206823862663E-01
              0.423180007899432E-02
              0.450506488474760E-01
             -0.833753346798833E-01
             -0.250713113668695E-01
              0.257288915483011E+00
              0.368097320675731E-02
             -0.283854706372319E+00
             -0.119855364505404E+00
              0.666067830580599E-01
             -0.578968800342510E+00
             -0.426494637909412E+00
             -0.202796789427184E-02
              0.906775994002778E-01
             -0.286956242203255E+00
              0.152792246557432E-01
              0.502429143330240E+00
              0.126905523721650E+00
             -0.271738372982586E+00
              0.335051354662762E-01
             -0.478490938905663E-01
              0.781435582700984E-01
             -0.197730540747024E+00
              0.128220677604765E+00
              0.115009092723121E+00
             -0.504085436087391E-01
              0.586985770755441E+00
             -0.328716023083886E-02
             -0.148383237290727E+00
              0.177574682710284E+00
              0.202169696565452E+00
             -0.151627066241324E+00
              0.151636705282335E-02
              0.504943867858050E+00
              0.795936944322362E-02
              0.252322783982272E+00
              0.874286484120306E-01
             -0.256981328498224E-01
             -0.563313704378596E-01
              0.221681781205797E+00
             -0.304277675635783E+00
             -0.590107743288193E-02
             -0.100662250800631E+00
             -0.202044425806480E+00
              0.526484323076999E-01
              0.140623925256059E+00
             -0.313026977337982E-01
             -0.133990909943376E-01
             -0.217356016691603E+00
              0.513063473204320E-01
              0.602421774033901E-02
             -0.101658738659654E+00
             -0.973839119699556E-01
              0.619661517576204E-01
              0.420054827521499E-02
             -0.204098137016395E+00
             -0.548229242150792E+00
              0.370715081061356E-01
              0.554625246066096E-01
             -0.279725392169360E+00
             -0.144952154491576E+00
              0.426811351055827E+00
              0.811638982858364E-01
              0.251025041575848E+00
              0.717986116636734E-01
              0.219698877708311E+00
              0.974399425906536E-02
             -0.204196613929534E+00
             -0.939585423645060E-01
              0.208204582315172E-01
              0.167404540125298E+00
              0.357909950283582E+00
              0.244640122844189E+00
              0.201185449479593E-01
              0.652522341430859E-01
              0.310109830753294E+00
              0.152402698987656E+00
             -0.333309536132547E+00
             -0.134522045357795E+00
              0.430285017498873E-01
              0.631321477908873E-01
              0.127141445238707E+00
             -0.244779815190355E+00
              0.156763033347961E-01
              0.226299295725900E+00
              0.240208399303152E+00
             -0.211403372280357E+00
              0.318008348937822E-01
             -0.118910582169711E-01
             -0.109435379764242E+00
             -0.993116035001900E-01
             -0.400730363015842E-01
             -0.941359020549717E-01
              0.620376968361931E-01
              0.212961475858089E+00
             -0.161645447373254E+00
              0.410425601396787E+00
              0.163202020163500E+00
              0.150402042596524E+00
              0.203626890832655E+00
              0.102849920320456E+00
              0.196461268485186E+00
              0.283041494929350E+00
             -0.243298297463800E+00
              0.325807265642127E+00
             -0.585484942391332E+00
              0.157635496803940E+00
             -0.535418308500935E+00
              0.398944664706518E+00
              0.409880225355187E+00
             -0.397872642392798E-01
             -0.227089651685611E+00
             -0.226763201265645E+00
             -0.247161483993190E+00
             -0.341333407741208E+00
              0.283787725860820E+00
              0.225654800303148E+00
              0.120768633505707E+00
              0.986715481545963E-01
              0.244986556623865E+00
             -0.213120341685283E+00
             -0.684649347232062E-01
              0.271847905897654E+00
             -0.719512840593362E-01
              0.256759533383726E+00
              0.413997190282622E+00
             -0.256246889801331E-01
             -0.397890375203320E+00
              0.570836752067221E-01
              0.720653970701989E-02
             -0.548239223331786E-01
              0.156478018405730E-01
             -0.330475121522299E+00
             -0.104529188733045E-01
              0.839355861379206E-01
              0.918667392737862E-01
              0.264070810033701E+00
             -0.221872040992661E+00
              0.223549671519245E+00
             -0.187001155157107E+00
              0.154950106766444E+00
              0.237009234972172E+00
 
 BEEF-vdW xc energy contributions
           1 :   -3.30903583640024     
           2 :    2.49110014237492     
           3 :   -1.39354171284617     
           4 :   0.478409569261593     
           5 :   8.250098936834371E-002
           6 :  -0.314596844700157     
           7 :   0.317982892856119     
           8 :  -0.228332717986843     
           9 :   0.163786556760253     
          10 :  -0.175355956013591     
          11 :   0.233355452864594     
          12 :  -0.271064026280623     
          13 :   0.235368745492391     
          14 :  -0.125420332971985     
          15 :  -9.567434127934593E-003
          16 :   0.104898482766169     
          17 :  -0.127450472281030     
          18 :   8.859529990229476E-002
          19 :  -3.211655157311455E-002
          20 :   2.722486385139611E-003
          21 :  -1.757603198271029E-002
          22 :   5.590406911828172E-002
          23 :  -8.086721191325186E-002
          24 :   7.109630611558071E-002
          25 :  -3.727330479728597E-002
          26 :   1.592815635879452E-002
          27 :  -2.862968546505140E-002
          28 :   4.824015005215587E-002
          29 :  -4.774900523686432E-002
          30 :   3.505213556312148E-002
          31 :  -0.474571268334304     
          32 :  -0.250931533100108     

     Writing output data file ./pwscf.save/
 
     init_run     :     54.21s CPU     56.09s WALL (       1 calls)
     electrons    :    132.60s CPU    138.95s WALL (       1 calls)
     forces       :     19.38s CPU     20.95s WALL (       1 calls)

     Called by init_run:
     wfcinit      :      0.71s CPU      0.73s WALL (       1 calls)
     potinit      :     52.00s CPU     53.48s WALL (       1 calls)
     hinit0       :      0.49s CPU      0.58s WALL (       1 calls)

     Called by electrons:
     c_bands      :     28.91s CPU     28.93s WALL (       5 calls)
     sum_band     :      6.84s CPU      7.88s WALL (       5 calls)
     v_of_rho     :    124.89s CPU    130.44s WALL (       5 calls)
     newd         :      2.79s CPU      3.76s WALL (       5 calls)
     PAW_pot      :      0.21s CPU      0.21s WALL (       5 calls)
     mix_rho      :     20.97s CPU     21.34s WALL (       5 calls)
     vdW_kernel   :     33.46s CPU     33.47s WALL (       1 calls)

     Called by c_bands:
     init_us_2    :      0.20s CPU      0.21s WALL (      11 calls)
     rcgdiagg     :     26.82s CPU     26.84s WALL (       5 calls)
     wfcrot       :      2.66s CPU      2.66s WALL (       4 calls)

     Called by *cgdiagg:
     h_psi        :     27.60s CPU     27.61s WALL (     120 calls)
     s_psi        :      0.50s CPU      0.50s WALL (     236 calls)

     Called by h_psi:
     h_psi:calbec :      0.27s CPU      0.27s WALL (     120 calls)
     vloc_psi     :     26.95s CPU     26.96s WALL (     120 calls)
     add_vuspsi   :      0.31s CPU      0.31s WALL (     120 calls)
     hs_1psi      :     25.35s CPU     25.36s WALL (     116 calls)
     s_1psi       :      0.53s CPU      0.53s WALL (     116 calls)

     General routines
     calbec       :      0.53s CPU      0.54s WALL (     245 calls)
     fft          :    202.34s CPU    202.35s WALL (    2225 calls)
     ffts         :     10.42s CPU     10.42s WALL (     116 calls)
     fftw         :     24.49s CPU     24.49s WALL (     271 calls)
 
     Parallel routines
 
     PWSCF        :  13m15.69s CPU  14m 8.56s WALL

 
   This run was terminated on:  22: 4:14  20Dec2022            

=------------------------------------------------------------------------------=
   JOB DONE.
=------------------------------------------------------------------------------=
