
     Program PWSCF v.6.7MaX starts on 20Dec2022 at 16: 4:51 

     This program is part of the open-source Quantum ESPRESSO suite
     for quantum simulation of materials; please cite
         "P. Giannozzi et al., J. Phys.:Condens. Matter 21 395502 (2009);
         "P. Giannozzi et al., J. Phys.:Condens. Matter 29 465901 (2017);
          URL http://www.quantum-espresso.org", 
     in publications or presentations arising from this work. More details at
     http://www.quantum-espresso.org/quote

     Parallel version (MPI), running on     1 processors

     MPI processes distributed on     1 nodes
     Reading input from c2h4-gas-ensemble.in
Warning: card &CELL ignored
Warning: card / ignored

     Current dimensions of program PWSCF are:
     Max number of different atomic species (ntypx) = 10
     Max number of k-points (npk) =  40000
     Max angular momentum in pseudopotentials (lmaxx) =  3
     file H.pbe-kjpaw_psl.1.0.0.UPF: wavefunction(s)  1S renormalized
     file C.pbe-n-kjpaw_psl.1.0.0.UPF: wavefunction(s)  2S 2P renormalized

     **************************************************************************
     Initializing libbeef V0.1.2 with the BEEF-vdW functional.
     Citation: Wellendorff et al., PRB 85, 235149 (2012).
     **************************************************************************


     IMPORTANT: XC functional enforced from input :
     Exchange-correlation= BEEF-VDW
                           (   1   4  43  14   2   0   0)
     Any further DFT definition will be discarded
     Please, verify this is what you really want


     gamma-point specific algorithms are used

     Subspace diagonalization in iterative solution of the eigenvalue problem:
     a serial algorithm will be used

 
     G-vector sticks info
     --------------------
     sticks:   dense  smooth     PW     G-vecs:    dense   smooth      PW
     Sum       35939   35939   8981              4490909  4490909  561257
 


     bravais-lattice index     =            0
     lattice parameter (alat)  =      43.1565  a.u.
     unit-cell volume          =   71523.8618 (a.u.)^3
     number of atoms/cell      =            6
     number of atomic types    =            2
     number of electrons       =        12.00
     number of Kohn-Sham states=           10
     kinetic-energy cutoff     =      60.0000  Ry
     charge density cutoff     =     240.0000  Ry
     scf convergence threshold =      1.0E-06
     mixing beta               =       0.7000
     number of iterations used =            8  local-TF  mixing
     Exchange-correlation= BEEF-VDW
                           (   1   4  43  14   2   0   0)

     celldm(1)=  43.156452  celldm(2)=   0.000000  celldm(3)=   0.000000
     celldm(4)=   0.000000  celldm(5)=   0.000000  celldm(6)=   0.000000

     crystal axes: (cart. coord. in units of alat)
               a(1) = (   1.000000   0.000000   0.000000 )  
               a(2) = (   0.000000   1.010063   0.000000 )  
               a(3) = (   0.000000   0.000000   0.880979 )  

     reciprocal axes: (cart. coord. in units 2 pi/alat)
               b(1) = (  1.000000  0.000000  0.000000 )  
               b(2) = (  0.000000  0.990038  0.000000 )  
               b(3) = (  0.000000  0.000000  1.135101 )  


     PseudoPot. # 1 for H  read from file:
     /users/bkreitz1/quantum-espresso/potentials/H.pbe-kjpaw_psl.1.0.0.UPF
     MD5 check sum: ae98473e6dc62675f0d0baffdab24f65
     Pseudo is Projector augmented-wave, Zval =  1.0
     Generated using 'atomic' code by A. Dal Corso  v.6.7MaX
     Shape of augmentation charge: PSQ
     Using radial grid of  929 points,  2 beta functions with: 
                l(1) =   0
                l(2) =   0
     Q(r) pseudized with 0 coefficients 


     PseudoPot. # 2 for C  read from file:
     /users/bkreitz1/quantum-espresso/potentials/C.pbe-n-kjpaw_psl.1.0.0.UPF
     MD5 check sum: a169b0ebad56f5ec0d79c4633f80bf22
     Pseudo is Projector augmented-wave + core cor, Zval =  4.0
     Generated using 'atomic' code by A. Dal Corso  v.6.7MaX
     Shape of augmentation charge: PSQ
     Using radial grid of 1073 points,  4 beta functions with: 
                l(1) =   0
                l(2) =   0
                l(3) =   1
                l(4) =   1
     Q(r) pseudized with 0 coefficients 


     atomic species   valence    mass     pseudopotential
        H              1.00     1.00800     H ( 1.00)
        C              4.00    12.01100     C ( 1.00)

     No symmetry found



   Cartesian axes

     site n.     atom                  positions (alat units)
         1           H   tau(   1) = (   0.5075277   0.4380038   0.4428499  )
         2           H   tau(   2) = (   0.4380352   0.4785451   0.4378330  )
         3           H   tau(   3) = (   0.4924841   0.5720512   0.4380068  )
         4           H   tau(   4) = (   0.5619780   0.5315133   0.4430221  )
         5           C   tau(   5) = (   0.4853824   0.4798517   0.4402385  )
         6           C   tau(   6) = (   0.5146449   0.5301951   0.4407912  )

     number of k points=     1  Gaussian smearing, width (Ry)=  0.0050
                       cart. coord. in units 2pi/alat
        k(    1) = (   0.0000000   0.0000000   0.0000000), wk =   2.0000000

     Dense  grid:  2245455 G-vectors     FFT dimensions: ( 216, 216, 192)

     Estimated max dynamical RAM per process >       3.51 GB

     Initial potential from superposition of free atoms

     starting charge   11.99988, renormalised to   12.00000

     negative rho (up, down):  7.456E-03 0.000E+00


     %%%%%%%%%%%%%%%%%%%%%%%%%%%%%%%%%%%%%%%%%%%%%%%%%%%%%%%%%%%%%%%%%%%%%%%%
     %                                                                      %
     % You are using vdW-DF, which was implemented by the Thonhauser group. %
     % Please cite the following two papers that made this development      %
     % possible and the two reviews that describe the various versions:     %
     %                                                                      %
     %   T. Thonhauser et al., PRL 115, 136402 (2015).                      %
     %   T. Thonhauser et al., PRB 76, 125112 (2007).                       %
     %   K. Berland et al., Rep. Prog. Phys. 78, 066501 (2015).             %
     %   D.C. Langreth et al., J. Phys.: Condens. Matter 21, 084203 (2009). %
     %                                                                      %
     %                                                                      %
     % If you are calculating the stress with vdW-DF, please also cite:     %
     %                                                                      %
     %   R. Sabatini et al., J. Phys.: Condens. Matter 24, 424209 (2012).   %
     %                                                                      %
     %%%%%%%%%%%%%%%%%%%%%%%%%%%%%%%%%%%%%%%%%%%%%%%%%%%%%%%%%%%%%%%%%%%%%%%%


     Starting wfcs are   12 randomized atomic wfcs
     Checking if some PAW data can be deallocated... 

     total cpu time spent up to now is       70.5 secs

     Self-consistent Calculation

     iteration #  1     ecut=    60.00 Ry     beta= 0.70
     Davidson diagonalization with overlap
     ethr =  1.00E-02,  avg # of iterations =  5.0

     negative rho (up, down):  5.976E-03 0.000E+00

     total cpu time spent up to now is      108.5 secs

     total energy              =     -42.90026460 Ry
     estimated scf accuracy    <       0.75714377 Ry

     iteration #  2     ecut=    60.00 Ry     beta= 0.70
     Davidson diagonalization with overlap
     ethr =  6.31E-03,  avg # of iterations =  1.0

     negative rho (up, down):  3.645E-03 0.000E+00

     total cpu time spent up to now is      144.6 secs

     total energy              =     -42.81538701 Ry
     estimated scf accuracy    <       0.20523238 Ry

     iteration #  3     ecut=    60.00 Ry     beta= 0.70
     Davidson diagonalization with overlap
     ethr =  1.71E-03,  avg # of iterations =  4.0

     negative rho (up, down):  5.688E-03 0.000E+00

     total cpu time spent up to now is      183.1 secs

     total energy              =     -42.84045449 Ry
     estimated scf accuracy    <       0.02845061 Ry

     iteration #  4     ecut=    60.00 Ry     beta= 0.70
     Davidson diagonalization with overlap
     ethr =  2.37E-04,  avg # of iterations =  5.0

     negative rho (up, down):  2.444E-02 0.000E+00

     total cpu time spent up to now is      223.5 secs

     total energy              =     -42.83732452 Ry
     estimated scf accuracy    <       0.02224084 Ry

     iteration #  5     ecut=    60.00 Ry     beta= 0.70
     Davidson diagonalization with overlap
     ethr =  1.85E-04,  avg # of iterations =  2.0

     negative rho (up, down):  9.655E-02 0.000E+00

     total cpu time spent up to now is      261.5 secs

     total energy              =     -42.83660920 Ry
     estimated scf accuracy    <       0.00912678 Ry

     iteration #  6     ecut=    60.00 Ry     beta= 0.70
     Davidson diagonalization with overlap
     ethr =  7.61E-05,  avg # of iterations =  3.0

     negative rho (up, down):  1.162E-01 0.000E+00

     total cpu time spent up to now is      300.9 secs

     total energy              =     -42.83838503 Ry
     estimated scf accuracy    <       0.00361920 Ry

     iteration #  7     ecut=    60.00 Ry     beta= 0.70
     Davidson diagonalization with overlap
     ethr =  3.02E-05,  avg # of iterations =  5.0

     negative rho (up, down):  9.373E-02 0.000E+00

     total cpu time spent up to now is      340.2 secs

     total energy              =     -42.83660361 Ry
     estimated scf accuracy    <       0.00206206 Ry

     iteration #  8     ecut=    60.00 Ry     beta= 0.70
     Davidson diagonalization with overlap
     ethr =  1.72E-05,  avg # of iterations =  8.0

     negative rho (up, down):  7.927E-02 0.000E+00

     total cpu time spent up to now is      380.9 secs

     total energy              =     -42.83661982 Ry
     estimated scf accuracy    <       0.00165374 Ry

     iteration #  9     ecut=    60.00 Ry     beta= 0.70
     Davidson diagonalization with overlap
     ethr =  1.38E-05,  avg # of iterations =  2.0

     negative rho (up, down):  5.561E-02 0.000E+00

     total cpu time spent up to now is      418.3 secs

     total energy              =     -42.83603280 Ry
     estimated scf accuracy    <       0.00044852 Ry

     iteration # 10     ecut=    60.00 Ry     beta= 0.70
     Davidson diagonalization with overlap
     ethr =  3.74E-06,  avg # of iterations = 11.0

     negative rho (up, down):  3.616E-02 0.000E+00

     total cpu time spent up to now is      459.7 secs

     total energy              =     -42.83599760 Ry
     estimated scf accuracy    <       0.00022470 Ry

     iteration # 11     ecut=    60.00 Ry     beta= 0.70
     Davidson diagonalization with overlap
     ethr =  1.87E-06,  avg # of iterations =  7.0

     negative rho (up, down):  2.760E-02 0.000E+00

     total cpu time spent up to now is      498.6 secs

     total energy              =     -42.83601893 Ry
     estimated scf accuracy    <       0.00006652 Ry

     iteration # 12     ecut=    60.00 Ry     beta= 0.70
     Davidson diagonalization with overlap
     ethr =  5.54E-07,  avg # of iterations =  2.0

     negative rho (up, down):  2.041E-02 0.000E+00

     total cpu time spent up to now is      536.2 secs

     total energy              =     -42.83602491 Ry
     estimated scf accuracy    <       0.00006780 Ry

     iteration # 13     ecut=    60.00 Ry     beta= 0.70
     Davidson diagonalization with overlap
     ethr =  5.54E-07,  avg # of iterations =  2.0

     negative rho (up, down):  1.748E-02 0.000E+00

     total cpu time spent up to now is      573.5 secs

     total energy              =     -42.83605859 Ry
     estimated scf accuracy    <       0.00004499 Ry

     iteration # 14     ecut=    60.00 Ry     beta= 0.70
     Davidson diagonalization with overlap
     ethr =  3.75E-07,  avg # of iterations =  5.0

     negative rho (up, down):  1.470E-02 0.000E+00

     total cpu time spent up to now is      611.4 secs

     total energy              =     -42.83605579 Ry
     estimated scf accuracy    <       0.00001539 Ry

     iteration # 15     ecut=    60.00 Ry     beta= 0.70
     Davidson diagonalization with overlap
     ethr =  1.28E-07,  avg # of iterations =  3.0

     negative rho (up, down):  1.412E-02 0.000E+00

     total cpu time spent up to now is      648.1 secs

     total energy              =     -42.83606106 Ry
     estimated scf accuracy    <       0.00000925 Ry

     iteration # 16     ecut=    60.00 Ry     beta= 0.70
     Davidson diagonalization with overlap
     ethr =  7.71E-08,  avg # of iterations =  2.0

     negative rho (up, down):  1.390E-02 0.000E+00

     total cpu time spent up to now is      677.0 secs

     End of self-consistent calculation

          k = 0.0000 0.0000 0.0000 (280629 PWs)   bands (ev):

   -19.2104 -14.6423 -11.7865 -10.5445  -8.9115  -6.9418  -1.2661  -0.7760
    -0.3335  -0.2872

     the Fermi energy is    -4.9500 ev

!    total energy              =     -42.83606111 Ry

     total all-electron energy =      -158.364238 Ry
     estimated scf accuracy    <       0.00000032 Ry
     smearing contrib. (-TS)   =      -0.00000000 Ry
     internal energy E=F+TS    =     -42.83606111 Ry

     The total energy is F=E-TS. E is the sum of the following terms:
     one-electron contribution =     -95.93229664 Ry
     hartree contribution      =      49.45657461 Ry
     xc contribution           =     -12.58696506 Ry
     ewald contribution        =      29.32231317 Ry
     one-center paw contrib.   =     -13.09568719 Ry

     convergence has been achieved in  16 iterations

     negative rho (up, down):  1.390E-02 0.000E+00

     Forces acting on atoms (cartesian axes, Ry/au):

     atom    1 type  1   force =     0.00075658   -0.00036832   -0.00051292
     atom    2 type  1   force =    -0.00055397    0.00015399   -0.00060882
     atom    3 type  1   force =    -0.00045193   -0.00024433    0.00100626
     atom    4 type  1   force =     0.00118260   -0.00015975    0.00110007
     atom    5 type  2   force =    -0.00155032   -0.00036711    0.00284777
     atom    6 type  2   force =     0.00061705    0.00098553   -0.00383237

     Total force =     0.005681     Total SCF correction =     0.000393

     negative rho (up, down):  1.390E-02 0.000E+00

     negative rho (up, down):  1.390E-02 0.000E+00

     negative rho (up, down):  1.390E-02 0.000E+00

     negative rho (up, down):  1.390E-02 0.000E+00

     negative rho (up, down):  1.390E-02 0.000E+00

     negative rho (up, down):  1.390E-02 0.000E+00

     negative rho (up, down):  1.390E-02 0.000E+00

     negative rho (up, down):  1.390E-02 0.000E+00

     negative rho (up, down):  1.390E-02 0.000E+00

     negative rho (up, down):  1.390E-02 0.000E+00

     negative rho (up, down):  1.390E-02 0.000E+00

     negative rho (up, down):  1.390E-02 0.000E+00

     negative rho (up, down):  1.390E-02 0.000E+00

     negative rho (up, down):  1.390E-02 0.000E+00

     negative rho (up, down):  1.390E-02 0.000E+00

     negative rho (up, down):  1.390E-02 0.000E+00

     negative rho (up, down):  1.390E-02 0.000E+00

     negative rho (up, down):  1.390E-02 0.000E+00

     negative rho (up, down):  1.390E-02 0.000E+00

     negative rho (up, down):  1.390E-02 0.000E+00

     negative rho (up, down):  1.390E-02 0.000E+00

     negative rho (up, down):  1.390E-02 0.000E+00

     negative rho (up, down):  1.390E-02 0.000E+00

     negative rho (up, down):  1.390E-02 0.000E+00

     negative rho (up, down):  1.390E-02 0.000E+00

     negative rho (up, down):  1.390E-02 0.000E+00

     negative rho (up, down):  1.390E-02 0.000E+00

     negative rho (up, down):  1.390E-02 0.000E+00

     negative rho (up, down):  1.390E-02 0.000E+00

     negative rho (up, down):  1.390E-02 0.000E+00

     negative rho (up, down):  1.390E-02 0.000E+00

     negative rho (up, down):  1.390E-02 0.000E+00

     negative rho (up, down):  1.390E-02 0.000E+00

     negative rho (up, down):  1.390E-02 0.000E+00
 BEEFens 2000 ensemble energies
             -0.967004021270527E+00
             -0.257528672675793E-01
             -0.185506587361039E+00
              0.651471336062860E+00
             -0.310215093694735E+00
             -0.216420703457737E+00
             -0.718069931799675E+00
             -0.145101763059277E+01
             -0.467730365304675E+00
             -0.514757685459257E+00
             -0.530346339484883E+00
              0.948251310947875E-01
              0.524750517202470E-01
             -0.939889955995832E-01
              0.562648519470841E-01
              0.696267658703341E+00
             -0.281526399058663E+00
             -0.108254602686895E+00
              0.377957668989815E+00
             -0.162264744143553E+01
              0.824740289934717E+00
             -0.266559524360224E+00
             -0.964777417227938E-01
             -0.122314904041934E+00
              0.661470567567086E-01
             -0.585950385649179E-01
              0.129756933050621E+01
             -0.364512304120353E+00
             -0.102925932278747E+00
             -0.839115065479358E+00
              0.975476988051490E+00
             -0.213663833300060E-01
             -0.617926770247976E+00
              0.237589097979025E+00
             -0.415975637086841E-01
              0.461930138062978E+00
              0.386697780729088E-01
             -0.288776085706623E-01
              0.602477079786975E+00
             -0.144861340286817E+01
              0.813081049593226E+00
              0.174886172977020E+00
             -0.209576406396221E+00
             -0.413516045246072E+00
              0.184790782516378E+00
             -0.272681238147151E+00
              0.768058383244824E+00
              0.510270692988124E+00
             -0.251164682545475E+00
             -0.476509720737059E+00
             -0.466358687065080E+00
             -0.561124782236890E+00
              0.370782607956079E+00
             -0.772341086541955E+00
              0.246680477949580E+00
              0.897677482876943E+00
              0.113346915668581E+01
              0.463890364536512E+00
              0.235109147725613E+00
              0.495599820913240E+00
              0.135404677643614E+01
              0.220667075587325E+00
             -0.809793736855382E+00
             -0.126891234201924E+00
             -0.452939569819065E+00
              0.914542166317910E+00
             -0.103584166443016E+01
             -0.867801200348268E+00
             -0.529284401311286E+00
             -0.319775682279713E+00
             -0.542060500744499E+00
              0.410997426682965E+00
              0.210054660515184E+00
              0.241918843959813E+00
             -0.574693806460439E+00
             -0.522928413215539E+00
             -0.878204620200765E+00
              0.443929857146063E+00
             -0.516965870980739E+00
              0.496931212584683E+00
             -0.135136101019373E+00
             -0.409762916842106E+00
             -0.706282625181530E+00
             -0.214552135215180E+00
             -0.261706511248116E+00
             -0.202006703824825E+00
              0.571901603445000E+00
              0.118021740841872E+01
             -0.677957782568368E+00
             -0.115962990640558E+01
             -0.264460304080213E+00
              0.159061366644310E+01
             -0.830187658113065E+00
              0.449883809994954E+00
             -0.171865519401907E+00
             -0.852025095348216E+00
              0.405290096528071E+00
              0.414786157930993E+00
             -0.220526898984219E+00
              0.403474880087103E+00
             -0.359530660331979E+00
             -0.931654064735907E+00
              0.152254833960438E+01
              0.662118918116004E+00
              0.276603987959084E+00
              0.177933571704451E+00
              0.350226473840018E+00
              0.118928856165956E+01
             -0.395652230838183E+00
              0.330823839108212E-01
             -0.202533314593532E+01
              0.249315959901881E+00
             -0.967175608151986E+00
              0.179314683280607E+00
              0.316714312070798E+00
             -0.555277052453160E+00
             -0.724729004658915E+00
              0.258095507813021E-01
             -0.465219870588411E+00
              0.678971026950486E+00
             -0.652104018898162E+00
             -0.148634515786114E+00
             -0.569770915509767E+00
             -0.413273385944031E-01
              0.951874353402853E-01
              0.366556158103199E+00
             -0.264309272963281E-02
             -0.845587344214414E-01
              0.100550692676510E+01
              0.135702488641090E+01
              0.739586506814608E+00
              0.908958415953651E+00
             -0.194484623064326E+00
              0.103863901624778E+00
              0.741676642182969E+00
              0.120892477215849E+00
             -0.112312566107818E+01
             -0.677110006638183E+00
             -0.719444609134128E+00
             -0.434513006142974E+00
              0.372387996651776E+00
             -0.179952703198404E+01
             -0.170878878899237E+00
              0.692989499948924E+00
             -0.601589522030517E+00
             -0.415591462807898E+00
              0.875301289579308E+00
              0.730625471370860E+00
             -0.405769595555189E+00
              0.537251059497859E+00
             -0.377207309230665E+00
              0.562317653240869E+00
              0.972748674549306E-01
              0.130779532789850E+00
             -0.119153225880197E+01
             -0.694479583384131E+00
             -0.130981446243409E+00
             -0.726819564996359E-01
             -0.634037437911799E+00
              0.165761119993329E+01
             -0.135642919904797E+00
             -0.381615949358209E+00
              0.568549072479577E+00
             -0.639846126814077E+00
             -0.575023291533993E+00
              0.486514419122887E+00
              0.188276516910009E+00
              0.151098014978978E+00
              0.259885607901189E+00
             -0.156965521388798E+00
              0.116177897495586E+00
              0.849055135233246E+00
             -0.379768822074692E+00
              0.333801959072532E+00
              0.130284300992376E+01
              0.465288934302875E+00
             -0.425546437389350E-01
             -0.315576964441497E+00
              0.228625101518713E+01
             -0.395136140047691E+00
              0.594737305904186E+00
              0.482313547376605E+00
              0.377893503264050E+00
              0.136970434543059E+01
              0.666386307523617E+00
             -0.735485583934928E-01
              0.382334459408624E+00
              0.787843572314678E+00
              0.558160551383958E+00
             -0.914200471425888E+00
              0.139542293546078E+01
             -0.127246194997138E+01
             -0.132949984954161E+00
              0.814977293170481E+00
              0.288559550373397E+00
              0.816815372493629E-01
              0.379424871349582E+00
              0.212118959987645E+00
              0.465916302393719E+00
             -0.913649306762151E+00
              0.460170107114681E-01
             -0.335198603952243E+00
             -0.648070050911129E-01
             -0.499941164514315E-01
             -0.213064134722892E+00
             -0.981011005537824E-01
              0.122328762564338E+01
             -0.596296622325621E-01
             -0.420238099523345E+00
             -0.134919198550224E-01
              0.218038693940870E+00
             -0.958542193172988E+00
             -0.860067588163550E+00
             -0.486351125550260E+00
             -0.931818106882415E+00
             -0.286328691947067E+00
             -0.589477693435412E+00
              0.254192964137739E+00
              0.416453073461129E-01
             -0.194636888471142E+00
             -0.115272594535158E+00
              0.680450993409218E-01
             -0.168482879281926E+00
              0.959523709834811E+00
             -0.131331744196355E+01
             -0.188302529618517E+00
             -0.187332515870654E+00
              0.218917872996801E+00
              0.344790233659201E+00
             -0.766491573669239E+00
             -0.161284291075188E+00
              0.664813341115696E+00
             -0.278323920275828E+00
              0.198833998301141E+00
              0.480576024390048E+00
             -0.671259735739316E-02
              0.169324544614613E+01
             -0.122687511097342E+00
             -0.511424885765092E+00
             -0.216187340699960E-01
             -0.435813817071957E+00
              0.797424227952804E+00
             -0.756283853238701E+00
              0.227102780571849E+00
              0.681799764390204E+00
             -0.182641462196614E+00
              0.173366157138662E+01
              0.187141668152113E+01
             -0.105747538123901E+01
              0.850983660709096E+00
              0.374127915412518E+00
             -0.837686443604408E+00
              0.251151592056199E+00
              0.665275416804558E+00
              0.714893524592064E+00
              0.677667396229684E-01
              0.300927581475447E+00
              0.112021129514371E+01
             -0.343358568506864E+00
              0.123785147694172E+00
              0.955644367923520E+00
             -0.519993583714622E+00
             -0.390450632436700E+00
              0.904072472983838E+00
              0.465092396575965E+00
              0.112538213041450E+01
              0.533610603043013E+00
              0.225061238132541E+00
              0.356046158109363E+00
              0.643394414235965E+00
             -0.806727981636916E+00
              0.128570623244213E+00
              0.451466882596885E+00
              0.161287689566874E+00
              0.369519448334297E+00
             -0.933513839314117E+00
              0.465634240739245E+00
             -0.631851550566830E+00
             -0.463492141948307E+00
              0.307973397940756E+00
             -0.108635390078239E+00
              0.911240350245771E+00
             -0.167927712940704E+00
              0.435323583204746E+00
              0.435829434950444E+00
              0.112949528261558E+01
              0.762977047568804E+00
              0.767206806878994E+00
             -0.200331271349796E-02
             -0.188300278858455E+00
             -0.432311735597414E+00
              0.123405578095324E+01
              0.122518809471973E+01
              0.587507522304376E+00
             -0.437059092888135E+00
              0.724041291979698E+00
              0.346593172939560E-01
              0.227442618718206E+00
              0.104670796465591E+01
             -0.453587007887246E-01
             -0.152796394935895E+00
             -0.293183840892517E+00
             -0.944681203799974E+00
              0.142804872492287E+01
              0.784593482637193E+00
             -0.985242686682269E+00
             -0.339078618317281E+00
              0.352895334179368E+00
             -0.150677431358597E+00
              0.979052397882372E+00
              0.229731724415807E+00
              0.120382719704409E+01
              0.465412504099193E+00
             -0.315976412666637E+00
              0.242595036829488E+00
             -0.108651467632183E+00
             -0.343727220727390E+00
              0.250042814977253E+00
              0.223352357816498E+00
              0.134898964607491E+01
              0.111595481728348E+01
              0.860878180150695E+00
              0.978710181851369E+00
              0.108866261863912E+00
             -0.377841134092121E+00
              0.194404311696881E+00
             -0.482590658962117E+00
             -0.858602781163451E+00
             -0.820274963573750E+00
             -0.484425701667849E+00
             -0.159711308638004E+01
             -0.573911314714602E+00
             -0.128378656544331E+01
              0.312131140234298E+00
             -0.659876558994042E+00
              0.783606260546067E+00
             -0.147460335192500E+01
             -0.440372901970220E+00
              0.530148637257166E+00
              0.319272308354902E+00
             -0.135887777016767E+01
              0.755877029409580E+00
             -0.431472425051722E+00
              0.820485518119013E+00
             -0.388647429145722E+00
             -0.115323869525871E+01
              0.265101352074220E+00
             -0.971895247303334E+00
             -0.127253035694235E-01
             -0.335635204866448E-01
              0.598470567874524E+00
              0.186231739633433E+01
             -0.624836914433872E+00
             -0.556378026060484E+00
             -0.118467518166683E+00
             -0.954969985420258E-01
             -0.117961718054906E+01
             -0.833400745756218E+00
              0.731932092314146E+00
             -0.240300177164581E+00
              0.355337742281512E+00
             -0.722271476917280E+00
             -0.241997341158736E+00
             -0.615946991621012E+00
              0.703528254471837E+00
              0.166534747577430E+00
             -0.370324070676404E+00
             -0.281283373702609E+00
              0.209436944031732E+00
             -0.103283113347176E+00
              0.575238505804287E+00
             -0.392294459982280E+00
              0.193623065172927E+00
              0.507744763973170E+00
              0.166769591690431E+00
             -0.375756488428999E+00
              0.228682753017643E+01
              0.903079833679837E+00
              0.162493461349348E+00
              0.822876993463399E-01
             -0.894507970951425E+00
              0.499675947755738E+00
             -0.116539044264291E+01
             -0.528256908431796E+00
             -0.900947248740969E+00
             -0.271217442731346E+00
              0.892795536284314E+00
             -0.861931724009696E+00
              0.416341700943278E+00
             -0.755711492516253E-01
              0.115633476499268E-01
             -0.445553380601654E+00
             -0.607411611939288E+00
             -0.125604141186346E+00
             -0.451346330294083E+00
             -0.320542094202699E+00
             -0.585374880518839E+00
             -0.639621742802363E-01
             -0.461570534326933E+00
             -0.707649988445139E+00
              0.301692507207674E+00
             -0.155363413193612E+00
              0.366772617825602E+00
              0.119590444932496E+00
             -0.112454992084966E+01
             -0.738259685090793E+00
             -0.776588353123235E+00
              0.450936508296857E+00
             -0.116202179210103E+00
             -0.895633748026897E+00
              0.844134953502936E+00
             -0.635626856977843E+00
              0.888311926692927E+00
             -0.466887773501169E+00
             -0.720943014914510E+00
              0.351010435459226E+00
             -0.108168967617220E+01
             -0.448874809995785E+00
              0.853355590849460E+00
              0.312969237183373E+00
             -0.663248617998892E+00
              0.838838394764162E+00
             -0.237172819061310E+00
             -0.551008356707535E+00
             -0.436074549676902E+00
             -0.783691608778906E+00
              0.394759128850144E+00
             -0.128757798234091E+01
             -0.111086259405643E+01
             -0.112918503601421E+00
             -0.430407448812088E+00
             -0.912247044291775E+00
              0.113934999027780E+01
              0.205764503587386E+01
             -0.286379667362266E+00
             -0.617066915381246E-01
             -0.883149091065789E+00
              0.985909374751811E+00
              0.328417862381365E+00
             -0.314554869176408E+00
             -0.531645693417250E+00
              0.204719009269618E+00
             -0.875191432673457E+00
             -0.150219583045959E+00
             -0.125888745123117E+01
              0.497413007837546E+00
              0.159409330388478E+00
             -0.919085220037719E-01
             -0.195692017241256E+00
             -0.642608234494940E+00
             -0.214172780629379E+00
              0.205027812416821E+01
             -0.225077352438512E+00
             -0.733444557491700E+00
             -0.103291642801572E+01
              0.215603954212582E+00
             -0.578415574828886E+00
              0.154398994063162E+00
              0.501640561767158E+00
              0.742979155239207E-01
              0.552136501854828E+00
              0.286746891284209E+00
              0.872180369414695E+00
              0.349904358748598E+00
             -0.551992182630051E+00
              0.840837797083600E+00
              0.507706200822094E+00
              0.187444751934808E+00
              0.534777901969797E+00
             -0.489471668336555E+00
              0.105335421822112E+01
              0.407259959952669E+00
             -0.523930088263513E+00
             -0.844786018352385E-01
             -0.243933493205531E+00
              0.211773826733400E+00
             -0.366105263730887E+00
             -0.202128311127503E+00
             -0.191116906469393E+00
              0.120004915996852E+01
              0.873198895522130E+00
             -0.932579371530847E+00
             -0.131975634034392E+00
             -0.728299878119207E+00
             -0.182458243157555E+00
             -0.313200860113050E+00
              0.172784298173157E+00
             -0.454638705578690E-01
             -0.432037490566625E+00
              0.266804971210826E+00
             -0.142444831358948E+00
             -0.938093084602316E-01
              0.129401168350712E+01
              0.211307259020306E+00
             -0.125416223287023E+01
             -0.559688088109036E+00
              0.143845860902229E+01
              0.342122022158955E+00
             -0.124524266735395E+00
              0.163577549551354E+01
             -0.232911163558872E+00
             -0.108089814212923E+00
             -0.197195175991554E+00
              0.239936241286583E+00
              0.511864403961649E+00
              0.365038691199828E-01
              0.424781623274575E+00
             -0.154485608208536E+00
             -0.618857143932042E+00
             -0.581412446849027E+00
             -0.712999099916336E+00
              0.598350347068739E+00
              0.220054948358297E+00
              0.562143308347561E+00
              0.243854695648979E+00
              0.134629398602472E+01
              0.305458598786846E+00
             -0.113878333811422E+01
             -0.489242389262284E+00
              0.222798815475287E-01
             -0.414703584359273E+00
              0.951665402388371E+00
             -0.233870865654769E+00
              0.244655143937495E+00
              0.832161215683524E+00
             -0.121628248559822E+01
              0.218608696017128E+01
              0.293737112644927E+00
              0.360787538808826E+00
              0.572843395346269E+00
              0.363638805045543E-01
             -0.310581499202689E-01
              0.467833614261083E+00
             -0.523937804421496E+00
              0.130295543765890E+01
              0.114019809878715E+01
             -0.574517351999754E+00
              0.255740816029443E+00
              0.107561203955554E+01
             -0.316688802504075E+00
              0.322257942172632E+00
              0.464867300844894E+00
              0.610261716690153E+00
             -0.109361994482049E+01
             -0.701498855405056E-01
             -0.371188024499602E+00
             -0.941833408961736E-01
             -0.114565307576360E+00
              0.128905460769381E+00
             -0.180303858693995E+00
             -0.454761948277429E+00
              0.266955984283661E+00
              0.826909632396386E-01
              0.790581396405639E+00
             -0.700164848926186E+00
              0.700266526456213E+00
              0.765779146768800E+00
             -0.108007913517699E+00
              0.107899007344314E+01
             -0.999148840800578E+00
             -0.153303399755105E+01
             -0.126552589930402E+00
             -0.948532576118399E-01
             -0.992759486303285E-03
              0.116220580755958E+01
             -0.492099152752878E-02
              0.638750538724579E+00
              0.907693613226208E+00
              0.583092161687198E+00
             -0.885134964921450E-01
              0.870194968185062E+00
             -0.252216219854104E+00
             -0.590122143386803E+00
             -0.511387528259057E+00
              0.161817378944830E+00
              0.507033618521623E+00
             -0.356132687348243E-01
              0.488257881212706E+00
              0.119031180095264E-01
              0.808354189398678E+00
              0.228538038719357E+00
              0.118507072770016E+00
              0.220321529656271E-01
              0.426236638824367E+00
              0.612708280306312E+00
              0.209883305548881E+00
             -0.539944335645490E-01
             -0.809072016453659E+00
              0.447300055281538E+00
              0.311041922543528E+00
              0.479533191556797E+00
              0.442754300725612E+00
              0.544318242653578E+00
             -0.138664445834785E+00
              0.524509637405229E+00
             -0.455407957644232E+00
             -0.280130078327296E-01
             -0.778051393165086E+00
             -0.521185459188038E+00
              0.646865444906958E+00
             -0.130762760271644E+01
              0.346858415223473E+00
              0.204628813269636E+00
              0.129843603773159E+01
             -0.164791029155850E+00
              0.499480139066753E+00
             -0.175194955456123E+00
             -0.739811462301023E+00
             -0.963977715330284E+00
             -0.243549254000578E+00
             -0.136299110268295E+01
              0.110009645657916E+00
             -0.311586639809381E+00
              0.494840895271034E+00
              0.380237600428142E+00
             -0.435542672139246E+00
             -0.462269329872534E+00
              0.643260843116631E+00
             -0.850509598227097E+00
             -0.210681006448346E+00
             -0.234680001866548E+00
              0.406745084620693E+00
              0.945057351591778E-01
              0.545309389671693E-01
             -0.211133879718841E+00
              0.793773653436890E+00
             -0.921958718214465E+00
              0.973363792410638E-01
              0.897013191582515E+00
             -0.546625450151432E+00
              0.609862302911055E-01
              0.327595978712596E-01
             -0.959224973439316E+00
             -0.549486850235119E+00
             -0.125637118767929E-01
              0.474455899771723E+00
              0.523917029984810E+00
              0.726223558543375E-01
             -0.183739808272763E+00
              0.240901811543499E+00
             -0.587829828496830E+00
             -0.814400618564717E-01
             -0.790521990395595E+00
             -0.395858953089054E+00
              0.753989711597507E+00
             -0.456328640396258E+00
              0.105606185035282E+01
             -0.357018824517038E+00
              0.486081801609087E+00
              0.380578014482161E+00
             -0.886484957013658E+00
             -0.368933185341165E+00
              0.150816676521859E+00
             -0.632903194542742E+00
             -0.623463557809311E+00
             -0.133737223822767E+01
             -0.822862257746007E+00
             -0.729584207595546E+00
             -0.673592890739753E+00
             -0.210867417696559E-02
              0.385285475855043E+00
              0.194999884393487E+00
              0.424906215265052E+00
             -0.877741918735755E+00
              0.195891652886023E+00
              0.448213070445137E+00
             -0.102470117378355E+01
             -0.837754456075218E+00
             -0.584381647407922E+00
             -0.509049955912472E+00
              0.202711612197179E+00
             -0.496350705655111E-01
             -0.610242594312959E+00
              0.402249232437522E+00
             -0.349693544158247E+00
              0.784217938386224E+00
             -0.130946443759687E+01
              0.963479891930894E+00
             -0.189791965089622E+00
             -0.670773169930299E+00
             -0.406866025106627E+00
             -0.248755523066364E-01
              0.734519864326376E+00
             -0.102729171368168E+01
             -0.185382038293250E+00
             -0.242543375583719E+00
              0.599155146700962E+00
              0.118943302424058E+01
             -0.150580954682916E+01
              0.136070431824874E+01
              0.555056272238188E+00
             -0.113718153486120E+01
             -0.457819414904240E+00
              0.118156968640156E+01
              0.842839726621268E+00
             -0.321012494425291E+00
             -0.110781041482248E+00
              0.284719183616170E+00
              0.117022856253080E+01
             -0.896470878839170E+00
              0.183914303701575E+00
             -0.113065054718062E+00
              0.383556772628022E+00
             -0.104238201901152E+01
             -0.279493917072107E-01
             -0.385876055536667E+00
              0.721862796159190E+00
              0.561628977939026E+00
             -0.134051862071008E+01
             -0.699236856454801E+00
             -0.304952426736568E+00
             -0.663162464964621E+00
             -0.181753556521107E+00
             -0.249822583116937E+00
              0.686005973006806E+00
              0.641435664187862E+00
             -0.135292018574735E-01
             -0.652608789204081E+00
             -0.129576325051755E+01
              0.771630813526215E+00
             -0.676720709195826E+00
             -0.569105283000937E+00
              0.116006074676447E+00
             -0.562786865980085E+00
             -0.600045335751513E+00
             -0.476156996653830E+00
             -0.781850428865192E+00
             -0.345997705677204E+00
             -0.732367577993437E+00
              0.810842438716115E+00
              0.862408967161711E+00
             -0.175808607740822E+00
             -0.302735736972003E+00
              0.520467864557457E-01
              0.626294197244301E+00
             -0.125419947665040E+01
             -0.351193146113500E+00
              0.740956361401974E+00
              0.108274745563128E+01
             -0.137475560205724E+00
              0.147597653814907E+00
              0.784228472343655E+00
              0.226345562161991E+00
              0.439943073522611E-01
             -0.571237601399964E+00
              0.204790956356400E+00
             -0.477222885319389E+00
             -0.973300776195503E-01
             -0.319349447307258E+00
             -0.203597553655038E+00
              0.371803552292500E+00
              0.118503917996199E+01
             -0.121238316059698E+00
              0.234350625283888E-01
             -0.136510603659460E+01
             -0.268603105057968E+00
             -0.524297982793540E+00
             -0.282040064001019E-01
             -0.716951029030643E+00
              0.136107535824906E+01
              0.130226024246354E+01
              0.282056557069250E+00
             -0.365125979014931E+00
              0.281359970302970E+00
              0.294093427902632E+00
             -0.687398609528770E+00
             -0.146903465705958E+00
              0.306410597174930E+00
              0.175353477743949E+00
              0.749385688484221E+00
              0.570797444725398E+00
             -0.307410768657147E+00
              0.304796387624755E+00
             -0.145416097640305E+01
             -0.191732224467676E-01
              0.134651752748968E+01
              0.289597078124473E+00
             -0.446404450855518E-01
              0.392586499042740E+00
             -0.347825324847823E+00
              0.128899040607577E+01
             -0.315459782587427E+00
              0.114397836427420E+01
              0.572973893006683E+00
             -0.678327852368144E+00
              0.499435903447335E+00
             -0.412481176150893E+00
             -0.101127254570727E+01
             -0.122598109327052E+00
             -0.800176356815367E+00
             -0.779012299879605E+00
             -0.149563610784185E-01
              0.570188240946997E+00
             -0.221952664691247E+00
             -0.450609788110103E+00
              0.110107106685488E+00
             -0.966117533382093E+00
             -0.401117465804698E-01
             -0.130910086957178E+01
              0.773528222938828E+00
             -0.590154970328776E-01
             -0.727257398322886E+00
             -0.229971024394118E+00
              0.260954694586452E+00
             -0.577895359546042E+00
             -0.651083144777757E+00
              0.136424841018208E+01
             -0.423929570772785E+00
             -0.543611207019199E+00
              0.492244568054222E+00
             -0.344217242790409E+00
              0.862510016009083E+00
             -0.375772103616310E-01
              0.277820513841394E-01
              0.164697202225989E+01
             -0.115148206085730E+00
             -0.577835570445757E+00
             -0.719901184308728E+00
             -0.761063891811331E+00
             -0.565097995393662E+00
              0.431664877919325E+00
              0.477655967541757E+00
              0.426952218747464E+00
              0.110553945074026E+01
              0.847617832964866E-01
              0.352082328671901E+00
             -0.848881096616426E+00
              0.279385571843962E-01
             -0.224912890187789E+00
             -0.418820233448315E+00
             -0.114294036197167E+00
              0.486583151561205E+00
              0.567797480301317E+00
             -0.418898924183107E-01
              0.202182288972203E+00
              0.406943382999279E+00
              0.505954993702996E+00
             -0.349241587809390E+00
             -0.137948090448912E+00
              0.319331522848376E-02
             -0.392867714795376E+00
             -0.397567151141702E-01
             -0.611930171993959E+00
              0.118211966111748E+01
              0.918214578700512E+00
             -0.288493784199991E+00
              0.257527283767405E+00
             -0.927801502841254E-01
             -0.485425047930885E+00
              0.560435671289722E+00
             -0.139837773738273E+00
              0.543415904721644E+00
             -0.702498400529064E+00
              0.265488309971265E+00
             -0.117346780401794E+00
             -0.797465677201665E+00
             -0.361879747018955E+00
              0.356378509290318E+00
             -0.147507766325938E+01
              0.566516327974679E+00
              0.690493184488762E+00
             -0.152424089535388E+00
             -0.114894659613118E+00
             -0.606354086780212E-01
              0.398105440675428E+00
             -0.512035808412853E+00
              0.458803719025142E+00
              0.480817421992083E+00
             -0.133235078542319E+01
             -0.550398717238155E+00
              0.362222995256232E+00
             -0.186129586199282E+00
              0.747115836412002E+00
             -0.924543098204987E+00
             -0.169065813509981E+00
             -0.590054878054920E+00
             -0.195272544644014E+01
              0.118129659171033E+01
             -0.886937297729162E+00
             -0.101401110540756E+01
              0.929572048398994E-01
              0.192283607419765E+01
              0.111976465037812E+00
             -0.502100071612241E+00
             -0.198551157533835E-01
             -0.501505516181617E-01
             -0.126977641742757E+01
             -0.809119048069760E+00
              0.128730060702253E+01
             -0.194059307090939E+00
             -0.532109596078667E+00
              0.722463394734403E+00
             -0.483318088496160E+00
              0.487333153758096E+00
              0.718214882054073E+00
             -0.776741147181999E+00
             -0.419769185185932E+00
             -0.469155338405956E+00
             -0.265335649387545E+00
             -0.291510030028663E+00
             -0.292904837517936E+00
              0.301670747175091E+00
             -0.532861861931154E+00
              0.411831486402576E+00
              0.812616807674823E+00
             -0.840212429746418E-01
             -0.316511807085376E+00
              0.232578248839346E+00
              0.811544230712742E+00
              0.825098248230034E+00
              0.170443383469723E+00
             -0.170510400091295E+00
             -0.173451557950755E+00
             -0.797767885912551E+00
              0.612085070409146E+00
             -0.367106716059965E+00
              0.345307237288461E+00
             -0.197083385968435E+00
              0.382093923856941E+00
              0.254896516801956E+00
             -0.121861121444023E+01
             -0.375992789621645E+00
             -0.117151180753942E+01
             -0.603817391384814E+00
              0.553220651089856E-01
             -0.295767179977604E+00
              0.530889938983257E+00
             -0.425221321194894E+00
              0.558189677855736E-01
              0.102121153276397E+00
              0.103740707738098E+01
              0.538446234881388E+00
             -0.490062797029363E+00
             -0.428929261708433E-01
              0.232513793656979E+00
              0.551678022483722E+00
             -0.103547891936087E-01
              0.851802906122339E+00
              0.411092513949379E+00
              0.134074105138601E+01
              0.539580128248294E-01
              0.921804837907546E+00
             -0.410293503094045E+00
             -0.582899370606220E+00
              0.259028496008007E-01
              0.161909583451269E+00
              0.327372254297505E+00
             -0.327402454655829E+00
             -0.159045035314229E+00
              0.346795862263836E+00
             -0.711087771267904E+00
             -0.902533837446140E+00
              0.118645772145969E+01
             -0.948486788739995E-01
             -0.539882419631763E+00
             -0.825352570332252E-01
             -0.208107241787348E+00
              0.669455137181842E+00
              0.542578661065911E+00
             -0.308356281164151E+00
              0.348644274992260E-02
             -0.381849024492616E+00
             -0.533885390574007E+00
             -0.345857742431095E+00
             -0.145649505907677E+01
              0.302125754572455E-01
             -0.958944525991064E+00
             -0.883919261719707E+00
             -0.553590324816524E+00
              0.337918136916306E+00
             -0.574057490698079E+00
              0.361700141137481E+00
             -0.977741579140591E+00
              0.499773248962221E-03
             -0.628179086453017E+00
              0.120555762312546E+00
              0.112952096322533E+00
              0.540423283428734E+00
             -0.314039397395616E+00
             -0.281654211306793E+00
              0.484844608968019E+00
              0.890898156781464E+00
              0.482178758604118E+00
              0.166130992461269E+00
             -0.111900451853257E+01
             -0.241536867192057E+00
             -0.411805803480800E+00
             -0.917926495329295E+00
              0.646691929243104E+00
             -0.517343454675751E+00
             -0.115361395899839E+00
             -0.420869434820601E+00
             -0.147238488727687E+01
              0.840683762010951E+00
             -0.278669908995351E+00
              0.575244411522049E+00
             -0.111054036960979E+01
              0.979673617844697E+00
              0.932125718549486E-01
             -0.376771360238685E+00
              0.161357937514270E+00
             -0.292895466238178E+00
             -0.928395202257396E+00
              0.260668618355342E+00
              0.603929749936262E+00
             -0.266352708778088E-01
             -0.510901801621321E+00
             -0.242101381524272E+00
              0.317448924538847E+00
              0.558858640250834E+00
              0.916680151529456E+00
              0.334513973405430E+00
             -0.341411489981094E+00
              0.151102505474228E+01
              0.305871381687924E+00
              0.719965821790251E+00
             -0.250355607145180E+00
              0.437595437164509E+00
              0.365288092262433E+00
             -0.923782902079014E+00
             -0.334761028538493E+00
             -0.603334748351538E+00
             -0.634901630974151E+00
             -0.184671902017945E+00
             -0.115939512870750E+00
             -0.706221899672079E+00
             -0.164991233299039E+01
             -0.398912271357170E+00
              0.200544808957797E+00
              0.834927777085284E-01
              0.244403422042455E+00
              0.588466209239112E+00
              0.144838811595777E+00
              0.465389441541998E+00
             -0.645491731802856E+00
              0.640362134584539E+00
             -0.572433646856387E+00
             -0.989711486616637E+00
              0.299489198849473E+00
             -0.631213147324555E+00
             -0.591536108366346E+00
             -0.237744295940674E+01
             -0.106147188682378E+00
              0.126328191373069E+01
              0.599760153038912E+00
             -0.155910079778375E+00
             -0.151984035098201E+00
              0.676982350342892E+00
              0.945694328473582E+00
             -0.584311001758676E+00
             -0.190142672153613E+00
             -0.546293155550198E+00
             -0.495059799775804E+00
             -0.435509293121746E+00
              0.149591256806049E+00
              0.102755335593644E+01
             -0.970539880714230E+00
             -0.811186328844962E+00
              0.583694736245199E-01
             -0.225033640124527E+00
             -0.261232911654233E+00
             -0.132356428729022E+01
              0.947410162032684E+00
              0.289244450712615E+00
              0.139080275156629E+00
              0.777445712764482E+00
             -0.492537868471005E+00
              0.504714519026893E+00
              0.428378645067737E+00
              0.138172631581526E-01
             -0.125458844159769E+00
              0.121849919077852E+00
             -0.232936889342690E+00
              0.790249278141893E+00
             -0.584242453157072E+00
              0.696799603415187E+00
              0.136472928755452E+00
              0.262978416310762E+00
              0.293319833425604E+00
             -0.120753405830170E+01
              0.159954811631436E+00
             -0.996966309706120E+00
             -0.713931954695355E+00
             -0.704544079419330E+00
             -0.792919158583647E+00
              0.134867021512619E-02
              0.290542433609980E+00
              0.743254290197211E+00
              0.104553594168310E+00
              0.224589209643906E+00
             -0.103053099542747E+01
             -0.416037851054358E+00
              0.481513150852154E+00
             -0.636551256582302E-01
             -0.584398844964178E-01
             -0.145192562415760E+00
              0.528590359883299E+00
             -0.135130407702376E+01
              0.197920000958377E+00
              0.302782972360204E+00
              0.575519513737328E+00
              0.545139355776089E+00
             -0.841107266861047E+00
              0.249232235570282E+00
              0.103425739227183E+00
              0.106689885232869E+00
              0.946776848398656E-01
             -0.298640347899653E+00
             -0.659692890865792E+00
              0.265561351010430E+00
              0.862695489455017E+00
             -0.866390516378779E-02
              0.207586184441173E+00
              0.181471718279727E+00
             -0.468570705613652E+00
             -0.499451236566319E+00
             -0.183543577837268E+01
             -0.561878777049370E+00
             -0.888455562993308E+00
             -0.932052192264363E-01
             -0.102254023865529E+01
              0.112500812424402E+01
             -0.509750611338200E+00
             -0.824625931847974E+00
             -0.233821354072357E+01
              0.100001757090865E+01
              0.224575323966260E+00
              0.170460428245081E+00
             -0.907504279694038E+00
              0.587266144316381E-01
             -0.250190853599780E+00
             -0.462904563323546E+00
              0.118638560485756E+00
              0.484648471279153E+00
              0.700126589115475E-01
             -0.312188272417950E+00
              0.677703926845741E-01
              0.216962442021127E-01
              0.145594237445062E+00
             -0.100399899874531E+01
              0.110321216105888E+01
             -0.615464494063092E+00
             -0.393603735305156E+00
             -0.783000204386024E+00
             -0.164932618118893E+01
              0.595488179833403E-01
             -0.868875349021771E+00
             -0.264750849582814E+00
              0.454829483355768E+00
             -0.403689237355325E+00
             -0.184740578251679E+00
             -0.197258152416931E+00
             -0.287147888413962E+00
              0.525349762143534E-01
              0.770351502657580E+00
             -0.745976286857198E+00
              0.156174947811733E+01
             -0.386500681919251E+00
              0.479287294383961E+00
             -0.280943026644730E+00
              0.171997022383934E+00
             -0.178686719404196E+00
              0.658718231449849E+00
              0.929871894320660E+00
              0.267884337360027E+00
              0.640321325502867E+00
             -0.423923502779474E+00
             -0.118282737634257E+00
             -0.350732122450202E+00
              0.945079984101033E+00
              0.819133639279009E+00
              0.593080576998826E+00
             -0.186303184766762E+00
             -0.374366140623758E+00
              0.358576461116477E+00
             -0.443100413745679E+00
             -0.223865691838334E+00
             -0.838888732047351E-01
             -0.541529799145336E+00
              0.723533689421314E+00
             -0.173514304155764E+00
              0.529361508745166E+00
              0.343260420700370E+00
              0.220299255185466E+00
             -0.502400108620343E+00
              0.361897205899237E+00
             -0.199806911038821E+00
             -0.102491705450978E+00
             -0.101296333185514E-01
             -0.713084447253382E+00
              0.115606441254741E+01
             -0.391965685794771E+00
              0.487403795468921E-02
              0.373513235602016E+00
              0.319173309259929E+00
              0.116160593618598E+01
             -0.325810705368311E+00
              0.111410976067654E+01
              0.989345028660856E+00
             -0.138309633820806E+01
              0.987662005290455E-01
             -0.271013594632671E+00
              0.182420555087946E+00
              0.692134218326954E-01
              0.322535323727167E+00
              0.957469308047648E+00
              0.149765971679744E+01
             -0.108290084191565E+01
              0.113229646774010E+01
             -0.150631815074513E+01
             -0.130033904756324E+01
             -0.223680455024649E+00
              0.147112178578559E-01
              0.118537034597222E+01
              0.476339775869219E+00
             -0.191633075132673E+00
             -0.122227355710176E+01
              0.990195853184769E+00
             -0.606421655872087E+00
              0.248458971738152E-01
             -0.828276858822182E-01
              0.193666394855371E+01
             -0.322972847675699E+00
             -0.156669553479967E+01
              0.447411150162103E+00
             -0.241300102238984E+01
              0.193180041303677E+00
             -0.575836485356922E+00
             -0.262733848346035E+00
             -0.378564945050567E+00
             -0.887016466411557E+00
              0.536977608069697E+00
             -0.545390326806742E+00
             -0.208978756788355E+00
             -0.112204004156562E+01
             -0.550656424595664E-01
             -0.811766962519936E+00
             -0.115633828933813E+01
             -0.155598503379195E+01
              0.120959534763336E+00
             -0.562775744494127E+00
              0.167278097361319E+00
             -0.208027999663229E+00
             -0.124604927962428E+01
             -0.959103975518631E+00
             -0.854620284568890E+00
             -0.884137869397470E+00
              0.776636068813681E+00
              0.763706960501085E-01
             -0.739971887313449E+00
             -0.379484198247626E+00
             -0.422773986713116E+00
              0.628770870492081E+00
             -0.444933676246635E+00
             -0.555409307049036E-01
             -0.486888826028652E+00
             -0.589540041454275E+00
             -0.626832556878555E+00
              0.603440858827117E+00
             -0.184059963527791E+00
             -0.137609340334365E+01
              0.114984357090328E+01
              0.668324041132570E+00
              0.385175698164728E-01
             -0.122598577030829E+01
             -0.110420038387128E+01
              0.695393573618226E-01
              0.100624248040972E-01
             -0.509926354484477E+00
             -0.640356551473622E+00
              0.440539003658686E+00
             -0.673275083146567E-01
              0.406164509581105E+00
              0.711264929022995E+00
              0.523156918481599E+00
              0.354621256488919E+00
              0.317530684455560E+00
             -0.335722536221596E+00
             -0.233188449240334E+00
             -0.277422222208207E+00
             -0.576380654129247E+00
             -0.695562956081816E+00
             -0.890154095034011E+00
             -0.527861519951705E+00
             -0.191263256558207E+00
             -0.109816588239595E+01
             -0.266822103547730E+00
              0.547463134925537E+00
             -0.127960120015214E+01
              0.564947638978269E+00
              0.458292031425366E+00
             -0.108208800222968E+01
             -0.825733592895478E+00
             -0.352621031252756E+00
              0.169515435821546E+00
             -0.620972411177961E+00
              0.113246676786526E+01
              0.997405820305482E+00
             -0.115837508850505E+01
              0.604104706307329E+00
              0.540617000859223E+00
              0.155781127619028E+00
              0.270362029107692E+00
             -0.637344209088493E+00
             -0.235900093373416E+00
              0.999022170682853E-01
              0.309775290961755E+00
              0.608305837369964E+00
             -0.807416615879205E+00
             -0.179397087281507E+00
              0.236634613116955E+00
              0.175510306079206E+00
             -0.521718743117665E+00
              0.278970719223808E+00
             -0.366812430284214E+00
             -0.267647458422225E+00
             -0.188991935301042E-01
             -0.924372690392145E+00
             -0.135148321548986E-01
             -0.112053622545877E+00
             -0.229923326393949E+00
              0.254575865738310E+00
             -0.780088786436044E+00
              0.879446497187993E+00
             -0.316891868418622E+00
             -0.200941841280368E+01
             -0.128279280825709E+01
              0.512146984701056E+00
             -0.634755246457833E+00
             -0.322794858851108E+00
             -0.335046784455403E+00
             -0.293952193875455E+00
             -0.155180843754299E+01
             -0.197653632817030E-02
             -0.923074876200278E+00
             -0.509878479606099E+00
              0.281689684762545E+00
              0.119704243170710E+01
              0.782729576835079E-01
              0.457390002596656E-01
              0.898456274380871E+00
             -0.884099383388797E+00
              0.407084492575030E+00
              0.809949983254206E-01
             -0.805574838882864E+00
             -0.477918741378140E+00
              0.281127838260746E+00
              0.509747580312918E-01
              0.264296927908776E+00
              0.203646739793100E+00
             -0.347686613916396E+00
             -0.507673429648550E+00
             -0.746585361735432E+00
              0.745800353378982E+00
             -0.102174199001350E+01
             -0.759598763234447E+00
              0.217756207972084E+00
             -0.124527418847017E+01
              0.359309253013062E+00
              0.893064001147430E+00
             -0.186387379769583E+00
              0.314219715543668E+00
             -0.520598520028673E+00
             -0.334218456728724E+00
              0.156326612967449E+00
              0.537159517368927E+00
             -0.539315495296902E+00
              0.325248623204674E+00
             -0.218049849045478E+00
              0.128649365636551E+00
              0.268253125024644E+00
              0.129660177696330E+00
             -0.196260004364880E+00
             -0.157309740211558E-01
              0.153330490100430E+00
              0.422579283081770E+00
             -0.105471259025801E+01
             -0.339088127533902E-01
              0.781347512999348E+00
             -0.130136506103337E+01
              0.493571744918999E+00
             -0.168655201629773E+01
             -0.175495651947516E+00
             -0.209935387637729E+00
             -0.394275407708768E-01
             -0.196693474875469E+00
             -0.413534616426186E+00
             -0.165860426998790E+00
              0.168815984553188E+00
             -0.389240474574924E+00
              0.159780709952405E+00
              0.136309528629748E+01
             -0.838012843044949E+00
             -0.372435670489225E+00
              0.635411241331171E+00
              0.306877698885862E+00
              0.641388092586520E+00
              0.308805291011904E+00
              0.229933945305444E+00
             -0.210479252066897E+00
             -0.734394015993657E+00
             -0.675347347157651E+00
             -0.538252951600192E+00
              0.956674748673247E-01
             -0.633449917734772E+00
             -0.169119429495482E+00
              0.866173464065318E-01
              0.364510803134170E+00
             -0.946037357582039E-01
              0.885984950896066E+00
             -0.100034154791948E+01
             -0.130499707860947E-01
             -0.116614417964889E+00
              0.473474243688679E+00
             -0.632384722659132E+00
             -0.414563708527248E+00
              0.175081142882024E+00
              0.667155808712079E+00
              0.113577510847678E+01
              0.441424976068328E+00
              0.695353273768161E+00
             -0.359960451466695E+00
              0.945905425557131E+00
              0.937029074628234E+00
             -0.956686419248065E-02
              0.436984046206687E+00
              0.557488842317262E+00
             -0.299238191226645E+00
              0.234014347229900E+00
              0.984697256918382E+00
             -0.307014234574952E+00
             -0.872644653285519E-01
             -0.931891258163611E+00
              0.321049974000486E+00
             -0.237748043308864E+00
              0.327041235444369E+00
              0.872377181459871E-02
             -0.580567801543816E+00
              0.681562356041045E+00
              0.581416320376090E+00
             -0.479192387269486E+00
              0.253519318905625E+00
             -0.897555707268964E+00
             -0.816909553181791E+00
              0.369003698797394E+00
             -0.101398097364749E+01
             -0.523385865341922E+00
             -0.418377303260087E-02
              0.129115657695211E+01
             -0.333387119719967E+00
             -0.169136723700723E+00
             -0.312696901040337E+00
              0.166810478911226E+01
              0.278066031124970E+00
             -0.633798122030554E+00
              0.106337179640609E+01
              0.930587212566635E+00
              0.490457308628705E+00
              0.120018443197347E+01
              0.131029867248501E+01
             -0.398344066678649E-01
             -0.426249449952384E+00
             -0.365263542582843E+00
              0.415382149064888E+00
              0.583409164266667E+00
             -0.112993324220917E+00
             -0.362671069093905E+00
             -0.849427960252040E+00
             -0.290708557680309E+00
             -0.695217786290609E+00
              0.507739873248620E+00
              0.268811665748753E+00
              0.899409302059373E+00
              0.216168734343787E+00
             -0.340061604078569E+00
             -0.129536593046983E+00
              0.591042501807915E+00
              0.151003862513491E+00
              0.934601858216435E+00
              0.823285307639360E+00
             -0.116381055607151E+00
             -0.134737374250089E+00
             -0.152781061796676E+01
              0.730147383621697E+00
              0.251954894553563E-02
              0.873826903357333E+00
             -0.395653125237122E+00
             -0.995395281304384E+00
              0.283689838395998E+00
              0.108776998956641E+01
             -0.374209914453838E+00
              0.979756148566802E+00
             -0.106908269802773E+01
             -0.393724513715856E+00
             -0.129175916968618E+01
              0.226411378367068E+00
              0.596091134052292E-01
              0.137594410664920E+00
             -0.930258157586116E+00
              0.139977344427258E+01
              0.805041551303545E+00
              0.856311947057415E-01
             -0.830667224167987E+00
              0.304917746271114E+00
             -0.259469607026643E+00
             -0.232230427637008E+00
             -0.416170021040208E+00
              0.245593469113341E+00
             -0.269306915392551E+00
             -0.270044345087343E+00
              0.358534031810535E+00
              0.344392307183700E+00
             -0.134666549169951E+01
              0.294257728003414E+00
              0.984572291952936E+00
              0.632823763446141E+00
             -0.194620784250223E+00
             -0.399418320817460E-01
             -0.550284790600284E+00
              0.824584243636964E+00
              0.119650022034808E+00
             -0.404479299242317E-01
             -0.910617010271828E-01
              0.161535768298834E+01
             -0.120778138875628E+00
              0.314566890966390E+00
              0.111750538459380E+01
              0.142702197933515E+01
              0.880144069788417E+00
              0.576994289832157E+00
             -0.958381780037106E+00
             -0.695524562693675E+00
              0.541826128433018E+00
              0.858967133841717E-01
              0.457072912850291E+00
              0.178017418739731E+00
              0.979765090230031E+00
             -0.118695224497220E+01
             -0.727715648163238E+00
             -0.178301894889920E+00
             -0.130096776850688E+01
              0.288872078895919E+00
              0.701241053735173E+00
             -0.128399273684554E-01
             -0.303459288817916E+00
              0.305510533727089E+00
              0.199783435398665E+01
              0.483564323743245E+00
              0.264770359972032E+00
             -0.696535393512827E+00
             -0.852166183873349E+00
             -0.200534156059021E+00
              0.425759967831017E+00
             -0.860809433009075E-01
              0.406244463092292E+00
              0.533429886150516E+00
             -0.906750268368074E+00
              0.403451021647297E+00
              0.469510796257470E+00
              0.828164753504847E+00
             -0.157548599950546E+00
              0.872670352144604E-01
             -0.101126710477633E+00
             -0.652562165113734E+00
             -0.109976861476361E+01
              0.111259245823879E+01
             -0.154254237579103E+00
             -0.775417376099986E+00
              0.135711636217704E+00
             -0.464729893834864E+00
              0.126402594300886E+01
             -0.343148911817719E+00
             -0.571609063652058E+00
              0.568855415336831E+00
             -0.233928298789819E+00
              0.695070535351882E+00
              0.555964805163649E-01
              0.135960134651145E+01
              0.787686375577408E+00
              0.207182897841214E+00
             -0.592710035340231E+00
              0.429922413151477E+00
             -0.803247690468731E+00
             -0.568188959322240E-01
              0.966811459463242E+00
             -0.375266515134089E+00
             -0.637804746139233E+00
             -0.344712691040596E+00
              0.765846111385915E+00
              0.162393802016093E+00
             -0.120085142259845E+01
              0.514292599742858E+00
              0.772109526252001E-01
              0.173320253193067E+00
             -0.724812714969241E+00
              0.161511055788288E+00
              0.508573680447578E+00
              0.667356576377766E+00
              0.978572041531078E+00
              0.538809242171409E+00
              0.112686880803670E+00
             -0.836179884053319E+00
             -0.618830097859835E+00
             -0.938595656636246E+00
             -0.227464852018017E+00
              0.518339022686479E+00
              0.366099521060148E-03
              0.774149214760200E+00
             -0.475896798454052E+00
              0.252909767133873E+00
             -0.368561612586352E+00
             -0.397647217133168E+00
              0.875335553189845E+00
              0.756477307966978E-01
              0.932574385211971E+00
              0.800342511539549E-01
              0.282965851685860E+00
             -0.235866032949541E+00
              0.884536219066580E+00
             -0.256598775402075E+00
              0.546942200193198E-02
             -0.116314057203784E+01
             -0.997360289384317E-01
              0.102604687726633E+01
              0.945851647921405E+00
              0.376063414471372E+00
             -0.230944678425053E+00
              0.891969441302816E-01
             -0.365687546957346E+00
             -0.314871143687500E+00
              0.133714305885256E+01
              0.129005085257143E+00
             -0.437725907217996E+00
             -0.156719043670146E+01
             -0.608797047603053E+00
             -0.566088524125769E+00
             -0.887131382035039E+00
             -0.893680442420708E+00
             -0.104827256659977E+01
             -0.667617517240875E+00
             -0.398898859254897E+00
             -0.712003990057938E+00
              0.652116981609997E+00
             -0.246024459685840E+00
             -0.121611185661291E+01
              0.616947059080754E+00
             -0.511220941358471E+00
             -0.117098172379869E+01
              0.150259182749886E+01
             -0.385823096524967E+00
              0.212428929316889E+00
              0.552441499083240E+00
              0.227710907490380E+00
              0.398181321241355E+00
              0.137356759176246E-01
              0.237253741295223E-01
             -0.197197769522180E+00
             -0.109952696364225E+01
              0.160042068131804E+00
             -0.176300062379431E+01
              0.109610563847034E+01
             -0.596391724336655E+00
             -0.290195843395171E+00
             -0.316310822410188E+00
              0.351339052932653E+00
             -0.233218513244914E+00
              0.411571929906166E+00
             -0.876750860299860E+00
              0.532644989928932E+00
              0.649579702085468E+00
              0.113892408375201E+00
              0.143091668231261E+00
              0.320680919229345E+00
              0.155370857384201E+00
              0.438487716801087E+00
             -0.509841720737954E-01
             -0.113685728338282E+01
              0.140501004443030E+00
             -0.531331217501352E+00
             -0.409785374887841E-01
              0.850995384444498E+00
             -0.118291898251980E+01
              0.402586774056326E-01
              0.581779794809618E-01
              0.145268173632087E+00
              0.445829180980782E+00
             -0.187720144826909E+00
              0.125169299394325E+01
              0.513211592263942E+00
             -0.203056992422233E+00
             -0.118929652974714E+00
              0.102766274913568E+00
              0.116376997521056E+01
             -0.717539961425201E+00
             -0.149592349681378E+01
              0.437310712716862E+00
             -0.120830985224954E+00
             -0.243014174251119E+00
              0.289805172842995E+00
              0.110929970342619E+01
              0.605888197537205E+00
             -0.251190104949712E+00
             -0.816064884321649E+00
             -0.204683710280610E+00
              0.403527906608893E+00
             -0.276703694568851E+00
             -0.114076392531708E+01
             -0.158367804411457E+00
             -0.146713559304567E+01
             -0.775280428573087E+00
              0.131782604718523E+01
             -0.784100656808582E+00
             -0.107175001978967E+01
             -0.792763870908088E+00
             -0.607029089297273E+00
              0.514381565899625E+00
              0.127135763909796E+01
             -0.165464596153315E+00
              0.395271817155322E+00
             -0.310323406003929E+00
             -0.101239773251870E+01
              0.782637098126662E+00
             -0.728856633727951E+00
              0.359737863591938E+00
              0.402998927636391E+00
             -0.247946584585844E+00
              0.530713377322470E+00
              0.559538767857519E+00
              0.183078719199658E+01
             -0.138820616818316E+00
             -0.874585438069894E+00
             -0.995301806835788E+00
             -0.295749399024482E+00
             -0.655651111950006E+00
              0.136938500544106E+01
             -0.681469625128258E+00
              0.149449328638727E+00
              0.222683772609438E-01
             -0.278642582433815E+00
             -0.129521204864712E+01
             -0.997882855839864E-01
              0.150193987159142E+01
              0.349324699368379E+00
              0.107835435528679E+00
             -0.895901647657150E+00
             -0.801132810620903E+00
             -0.286989273464865E+00
              0.672160367605915E+00
             -0.404155439743366E+00
              0.149001154694724E+01
             -0.726364589520726E+00
              0.286162349649508E+00
             -0.180099072027669E+00
             -0.912542503149655E+00
              0.108325895649316E+00
             -0.858288656976868E+00
             -0.110122880965743E+01
              0.171977225484786E+00
              0.182092800616447E-01
              0.726633904706711E+00
              0.411854589552516E+00
             -0.532228989283281E+00
              0.319347756333927E+00
             -0.133864412462913E+01
             -0.693599083262850E+00
              0.139154055202552E+01
              0.252171648960366E-01
             -0.612602817941035E-01
             -0.349693138812698E+00
              0.733982606901051E-03
             -0.192305382321773E+00
              0.139203461539723E+01
              0.619865169222638E+00
             -0.110835737052039E+00
              0.199804386886795E-01
             -0.559685793538892E+00
             -0.164848285469563E+00
             -0.912192881994537E+00
              0.782635706878866E+00
              0.993006842602782E-01
              0.105509035009580E+00
              0.292197635475770E+00
             -0.225070795151811E+00
             -0.350404509569194E+00
              0.158605217683647E+00
             -0.167763671675939E+01
             -0.144753359703051E+00
             -0.151781768558156E+00
             -0.881718532866553E-01
              0.706319331282498E+00
              0.973874283288979E+00
              0.273569142420852E+00
             -0.138582599943556E+01
              0.952842616023303E+00
             -0.364520980926939E+00
             -0.549470974490980E+00
             -0.130068037451906E+01
             -0.388185971375817E+00
              0.958110392754286E+00
              0.515442955797001E+00
              0.259027950505992E+00
              0.531493743264910E+00
             -0.830812165917515E+00
             -0.740358338019891E+00
              0.952039942096088E+00
              0.624475437661929E+00
              0.690912770913014E+00
              0.159013024994840E+00
              0.167396383680675E+00
              0.785945933438692E+00
              0.147053165825046E+01
             -0.251379482631957E+00
              0.608861742143262E+00
             -0.470786656996689E+00
             -0.653487947940854E+00
             -0.522797397105820E+00
             -0.509984874112714E+00
             -0.211604333119514E+00
             -0.703977949180636E+00
             -0.274105136850961E+00
             -0.190933444156076E+01
              0.468222906909636E+00
              0.442616827809887E+00
             -0.497971579802828E-01
             -0.539362175988506E+00
             -0.258670519922967E+00
             -0.853074235338942E+00
              0.747340078738583E-01
              0.117604811816679E+01
             -0.276449620527063E+00
             -0.289238308512602E+00
              0.281306232905166E+00
             -0.768419964681390E+00
              0.127718701963788E+01
              0.228356963375529E+00
              0.718315427702612E-01
              0.774467483583191E+00
             -0.110614735657890E+00
              0.885689635765474E+00
              0.308831593479446E+00
             -0.150097513040377E-01
              0.211397419564536E+00
             -0.169042102709641E+00
              0.996771903155399E+00
              0.104818675688188E+00
              0.332032639905702E+00
             -0.134418918704012E+00
              0.151121237209484E+00
             -0.140720461212228E+01
             -0.515252448764276E+00
             -0.748792065047855E+00
              0.742130738887321E+00
             -0.543320360567578E+00
             -0.811378057924022E+00
              0.892013782430862E+00
             -0.206629983535373E+00
              0.616924454818752E+00
             -0.131781840695250E+01
              0.250985866120928E+00
              0.474849693804347E-01
              0.109967063776264E+00
             -0.216335455502886E+00
             -0.970179252893999E-01
              0.746769338572253E+00
              0.408916862242767E-01
             -0.802527254528978E+00
             -0.339605848744599E+00
              0.257465209803497E+00
             -0.172445740950936E+01
             -0.128612207774671E+01
              0.108806202956124E-01
              0.256258308309801E+00
             -0.785269355690432E+00
              0.283428420377199E-01
              0.152799845263571E+01
              0.417615410808150E+00
             -0.805867468569435E+00
              0.109072917195874E+00
             -0.157908103973064E+00
              0.204460935898428E+00
             -0.545729535601609E+00
              0.357353533026241E+00
              0.342985438400920E+00
             -0.130914938457232E+00
              0.168659029166996E+01
             -0.480591191690589E-01
             -0.451264763167902E+00
              0.484255070719602E+00
              0.643983190515722E+00
             -0.468679292384572E+00
             -0.790284293547949E-02
              0.147351782219658E+01
             -0.144495902840358E-01
              0.766627569864841E+00
              0.249819120242900E+00
             -0.935730080137267E-01
             -0.209970213695500E+00
              0.690115831918205E+00
             -0.889785815888465E+00
             -0.268605903003758E-01
             -0.309620184330494E+00
             -0.595673734616558E+00
              0.161777568747766E+00
              0.380486916291417E+00
             -0.447155258539818E-01
             -0.254817895879800E-01
             -0.629476145092756E+00
              0.212614746925801E+00
             -0.189001585116655E-01
             -0.315631914042596E+00
             -0.295582350164682E+00
              0.237057477018797E+00
              0.407780659259949E-02
             -0.583053542868442E+00
             -0.160783630827805E+01
              0.978071679137484E-01
              0.203281568000966E+00
             -0.732246762391334E+00
             -0.388684032916343E+00
              0.123165789496232E+01
              0.208393826274704E+00
              0.680487881040186E+00
              0.175685583987263E+00
              0.599014329773901E+00
              0.277805120981807E-01
             -0.593152490007313E+00
             -0.206120749672766E+00
              0.752609596967577E-01
              0.473853971119911E+00
              0.109291273358071E+01
              0.737262490207236E+00
              0.458545779386621E-01
              0.164918465034700E+00
              0.910986062520682E+00
              0.426632495250726E+00
             -0.102762516504109E+01
             -0.413628825878589E+00
              0.157330965134407E+00
              0.155654930601620E+00
              0.376806457906179E+00
             -0.758701562222956E+00
              0.526063235387810E-01
              0.626320390274089E+00
              0.726016064637284E+00
             -0.626034838259678E+00
              0.613039069343646E-01
             -0.389971909737357E-01
             -0.323461724905441E+00
             -0.357178795663371E+00
             -0.156719001969210E+00
             -0.215494061084355E+00
              0.176781635233548E+00
              0.629830980901532E+00
             -0.486680302803651E+00
              0.121786676998834E+01
              0.491352250506761E+00
              0.396261024578337E+00
              0.571225995462399E+00
              0.351074095093324E+00
              0.543352889722062E+00
              0.831254126300267E+00
             -0.711472464590306E+00
              0.942707974544424E+00
             -0.171058900737718E+01
              0.468257895866785E+00
             -0.156248108294119E+01
              0.119533993601204E+01
              0.117761941759253E+01
             -0.119047877265591E+00
             -0.691513598712083E+00
             -0.652404094182286E+00
             -0.793292214695171E+00
             -0.994082727797752E+00
              0.813283599279560E+00
              0.641698216670928E+00
              0.361969754563007E+00
              0.364353999425546E+00
              0.687221877495256E+00
             -0.619536606777996E+00
             -0.206229145060717E+00
              0.794903500285594E+00
             -0.184809159611706E+00
              0.742836395678435E+00
              0.117495761585774E+01
             -0.589826168550251E-01
             -0.114099188576515E+01
              0.101863980412827E+00
              0.243808755030344E-01
             -0.155707310717170E+00
              0.478793934699047E-01
             -0.962311340812638E+00
             -0.972190099392982E-01
              0.224397882626419E+00
              0.230702117122707E+00
              0.756017348671892E+00
             -0.635736699056284E+00
              0.742593173458125E+00
             -0.568570434749184E+00
              0.422342132649884E+00
              0.662122408551812E+00
 
 BEEF-vdW xc energy contributions
           1 :   -10.3346923777978     
           2 :    8.37991504952254     
           3 :   -5.60941433515350     
           4 :    3.05898539726801     
           5 :   -1.19317497747215     
           6 :   9.046455791347974E-002
           7 :   0.369535676095891     
           8 :  -0.419400269804264     
           9 :   0.313494439559832     
          10 :  -0.245666601353225     
          11 :   0.283206798437829     
          12 :  -0.378475742384689     
          13 :   0.440675771866900     
          14 :  -0.410953930830649     
          15 :   0.285516154828361     
          16 :  -0.109238093705327     
          17 :  -5.212059073272890E-002
          18 :   0.145480589052333     
          19 :  -0.158096976357745     
          20 :   0.115419223907340     
          21 :  -5.955233184846342E-002
          22 :   2.184467216652664E-002
          23 :  -8.563779787730041E-003
          24 :   1.817758873229991E-003
          25 :   1.946829971255859E-002
          26 :  -6.125995284174124E-002
          27 :   0.110984854555474     
          28 :  -0.147209084790459     
          29 :   0.153149189845298     
          30 :  -0.128308133759594     
          31 :   -1.43523757629380     
          32 :  -0.877282370806038     

     Writing output data file ./pwscf.save/
 
     init_run     :     68.10s CPU     70.39s WALL (       1 calls)
     electrons    :    563.53s CPU    606.63s WALL (       1 calls)
     forces       :     29.55s CPU     31.52s WALL (       1 calls)

     Called by init_run:
     wfcinit      :      1.50s CPU      1.57s WALL (       1 calls)
     potinit      :     58.34s CPU     59.98s WALL (       1 calls)
     hinit0       :      6.77s CPU      6.89s WALL (       1 calls)

     Called by electrons:
     c_bands      :     66.40s CPU     67.25s WALL (      16 calls)
     sum_band     :     36.27s CPU     42.41s WALL (      16 calls)
     v_of_rho     :    383.96s CPU    410.53s WALL (      17 calls)
     newd         :     14.96s CPU     21.18s WALL (      17 calls)
     PAW_pot      :      1.47s CPU      1.47s WALL (      17 calls)
     mix_rho      :    113.43s CPU    118.60s WALL (      16 calls)
     vdW_kernel   :     33.52s CPU     33.53s WALL (       1 calls)

     Called by c_bands:
     init_us_2    :      1.34s CPU      1.36s WALL (      33 calls)
     regterg      :     63.98s CPU     64.82s WALL (      16 calls)

     Called by *egterg:
     rdiaghg      :      0.01s CPU      0.02s WALL (      83 calls)
     h_psi        :     57.88s CPU     57.90s WALL (      84 calls)
     s_psi        :      1.50s CPU      1.50s WALL (      84 calls)
     g_psi        :      0.24s CPU      0.24s WALL (      67 calls)

     Called by h_psi:
     h_psi:calbec :      1.03s CPU      1.03s WALL (      84 calls)
     vloc_psi     :     55.15s CPU     55.16s WALL (      84 calls)
     add_vuspsi   :      1.31s CPU      1.31s WALL (      84 calls)

     General routines
     calbec       :      1.31s CPU      1.32s WALL (     104 calls)
     fft          :    250.24s CPU    250.28s WALL (    2932 calls)
     ffts         :     46.29s CPU     46.29s WALL (     553 calls)
     fftw         :     52.08s CPU     52.08s WALL (     622 calls)
 
     Parallel routines
 
     PWSCF        :  21m49.22s CPU  23m28.80s WALL

 
   This run was terminated on:  16:28:20  20Dec2022            

=------------------------------------------------------------------------------=
   JOB DONE.
=------------------------------------------------------------------------------=
