
     Program PWSCF v.6.7MaX starts on 20Dec2022 at 16:11:12 

     This program is part of the open-source Quantum ESPRESSO suite
     for quantum simulation of materials; please cite
         "P. Giannozzi et al., J. Phys.:Condens. Matter 21 395502 (2009);
         "P. Giannozzi et al., J. Phys.:Condens. Matter 29 465901 (2017);
          URL http://www.quantum-espresso.org", 
     in publications or presentations arising from this work. More details at
     http://www.quantum-espresso.org/quote

     Parallel version (MPI), running on     1 processors

     MPI processes distributed on     1 nodes
     Reading input from cc-gas-ensemble.in
Warning: card &CELL ignored
Warning: card / ignored

     Current dimensions of program PWSCF are:
     Max number of different atomic species (ntypx) = 10
     Max number of k-points (npk) =  40000
     Max angular momentum in pseudopotentials (lmaxx) =  3
     file C.pbe-n-kjpaw_psl.1.0.0.UPF: wavefunction(s)  2S 2P renormalized

     **************************************************************************
     Initializing libbeef V0.1.2 with the BEEF-vdW functional.
     Citation: Wellendorff et al., PRB 85, 235149 (2012).
     **************************************************************************


     IMPORTANT: XC functional enforced from input :
     Exchange-correlation= BEEF-VDW
                           (   1   4  43  14   2   0   0)
     Any further DFT definition will be discarded
     Please, verify this is what you really want


     gamma-point specific algorithms are used

     Subspace diagonalization in iterative solution of the eigenvalue problem:
     a serial algorithm will be used

 
     G-vector sticks info
     --------------------
     sticks:   dense  smooth     PW     G-vecs:    dense   smooth      PW
     Sum       29873   29873   7463              3727659  3727659  465875
 


     bravais-lattice index     =            0
     lattice parameter (alat)  =      40.0228  a.u.
     unit-cell volume          =   59368.7073 (a.u.)^3
     number of atoms/cell      =            2
     number of atomic types    =            1
     number of electrons       =         8.00
     number of Kohn-Sham states=            8
     kinetic-energy cutoff     =      60.0000  Ry
     charge density cutoff     =     240.0000  Ry
     scf convergence threshold =      1.0E-06
     mixing beta               =       0.7000
     number of iterations used =            8  local-TF  mixing
     Exchange-correlation= BEEF-VDW
                           (   1   4  43  14   2   0   0)

     celldm(1)=  40.022828  celldm(2)=   0.000000  celldm(3)=   0.000000
     celldm(4)=   0.000000  celldm(5)=   0.000000  celldm(6)=   0.000000

     crystal axes: (cart. coord. in units of alat)
               a(1) = (   1.000000   0.000000   0.000000 )  
               a(2) = (   0.000000   0.976440   0.000000 )  
               a(3) = (   0.000000   0.000000   0.948394 )  

     reciprocal axes: (cart. coord. in units 2 pi/alat)
               b(1) = (  1.000000  0.000000  0.000000 )  
               b(2) = (  0.000000  1.024128  0.000000 )  
               b(3) = (  0.000000  0.000000  1.054414 )  


     PseudoPot. # 1 for C  read from file:
     /users/bkreitz1/quantum-espresso/potentials/C.pbe-n-kjpaw_psl.1.0.0.UPF
     MD5 check sum: a169b0ebad56f5ec0d79c4633f80bf22
     Pseudo is Projector augmented-wave + core cor, Zval =  4.0
     Generated using 'atomic' code by A. Dal Corso  v.6.7MaX
     Shape of augmentation charge: PSQ
     Using radial grid of 1073 points,  4 beta functions with: 
                l(1) =   0
                l(2) =   0
                l(3) =   1
                l(4) =   1
     Q(r) pseudized with 0 coefficients 


     atomic species   valence    mass     pseudopotential
        C              4.00    12.01100     C ( 1.00)

     No symmetry found



   Cartesian axes

     site n.     atom                  positions (alat units)
         1           C   tau(   1) = (   0.4729324   0.4755292   0.4714788  )
         2           C   tau(   2) = (   0.5270676   0.5009108   0.4773871  )

     number of k points=     1  Gaussian smearing, width (Ry)=  0.0050
                       cart. coord. in units 2pi/alat
        k(    1) = (   0.0000000   0.0000000   0.0000000), wk =   2.0000000

     Dense  grid:  1863830 G-vectors     FFT dimensions: ( 200, 200, 192)

     Estimated max dynamical RAM per process >       2.67 GB

     Initial potential from superposition of free atoms

     starting charge    7.99992, renormalised to    8.00000

     negative rho (up, down):  6.869E-03 0.000E+00


     %%%%%%%%%%%%%%%%%%%%%%%%%%%%%%%%%%%%%%%%%%%%%%%%%%%%%%%%%%%%%%%%%%%%%%%%
     %                                                                      %
     % You are using vdW-DF, which was implemented by the Thonhauser group. %
     % Please cite the following two papers that made this development      %
     % possible and the two reviews that describe the various versions:     %
     %                                                                      %
     %   T. Thonhauser et al., PRL 115, 136402 (2015).                      %
     %   T. Thonhauser et al., PRB 76, 125112 (2007).                       %
     %   K. Berland et al., Rep. Prog. Phys. 78, 066501 (2015).             %
     %   D.C. Langreth et al., J. Phys.: Condens. Matter 21, 084203 (2009). %
     %                                                                      %
     %                                                                      %
     % If you are calculating the stress with vdW-DF, please also cite:     %
     %                                                                      %
     %   R. Sabatini et al., J. Phys.: Condens. Matter 24, 424209 (2012).   %
     %                                                                      %
     %%%%%%%%%%%%%%%%%%%%%%%%%%%%%%%%%%%%%%%%%%%%%%%%%%%%%%%%%%%%%%%%%%%%%%%%


     Starting wfcs are    8 randomized atomic wfcs
     Checking if some PAW data can be deallocated... 

     total cpu time spent up to now is       62.6 secs

     Self-consistent Calculation

     iteration #  1     ecut=    60.00 Ry     beta= 0.70
     Davidson diagonalization with overlap
     ethr =  1.00E-02,  avg # of iterations =  7.0

     negative rho (up, down):  4.912E-03 0.000E+00

     total cpu time spent up to now is       94.6 secs

     total energy              =     -37.33598040 Ry
     estimated scf accuracy    <       0.22486917 Ry

     iteration #  2     ecut=    60.00 Ry     beta= 0.70
     Davidson diagonalization with overlap
     ethr =  2.81E-03,  avg # of iterations =  1.0

     negative rho (up, down):  3.086E-03 0.000E+00

     total cpu time spent up to now is      124.5 secs

     total energy              =     -37.32292879 Ry
     estimated scf accuracy    <       0.04669037 Ry

     iteration #  3     ecut=    60.00 Ry     beta= 0.70
     Davidson diagonalization with overlap
     ethr =  5.84E-04,  avg # of iterations =  2.0

     negative rho (up, down):  3.025E-03 0.000E+00

     total cpu time spent up to now is      155.1 secs

     total energy              =     -37.33906721 Ry
     estimated scf accuracy    <       0.28174283 Ry

     iteration #  4     ecut=    60.00 Ry     beta= 0.70
     Davidson diagonalization with overlap
     ethr =  5.84E-04,  avg # of iterations =  1.0

     negative rho (up, down):  1.487E-03 0.000E+00

     total cpu time spent up to now is      185.4 secs

     total energy              =     -37.32067863 Ry
     estimated scf accuracy    <       0.11087103 Ry

     iteration #  5     ecut=    60.00 Ry     beta= 0.70
     Davidson diagonalization with overlap
     ethr =  5.84E-04,  avg # of iterations =  1.0

     negative rho (up, down):  1.035E-03 0.000E+00

     total cpu time spent up to now is      215.8 secs

     total energy              =     -37.33839522 Ry
     estimated scf accuracy    <       0.02300878 Ry

     iteration #  6     ecut=    60.00 Ry     beta= 0.70
     Davidson diagonalization with overlap
     ethr =  2.88E-04,  avg # of iterations =  2.0

     negative rho (up, down):  4.166E-03 0.000E+00

     total cpu time spent up to now is      246.5 secs

     total energy              =     -37.33639112 Ry
     estimated scf accuracy    <       0.01779047 Ry

     iteration #  7     ecut=    60.00 Ry     beta= 0.70
     Davidson diagonalization with overlap
     ethr =  2.22E-04,  avg # of iterations =  2.0

     negative rho (up, down):  2.364E-02 0.000E+00

     total cpu time spent up to now is      277.2 secs

     total energy              =     -37.33533603 Ry
     estimated scf accuracy    <       0.00995046 Ry

     iteration #  8     ecut=    60.00 Ry     beta= 0.70
     Davidson diagonalization with overlap
     ethr =  1.24E-04,  avg # of iterations =  2.0

     negative rho (up, down):  2.548E-02 0.000E+00

     total cpu time spent up to now is      308.0 secs

     total energy              =     -37.33586730 Ry
     estimated scf accuracy    <       0.00047047 Ry

     iteration #  9     ecut=    60.00 Ry     beta= 0.70
     Davidson diagonalization with overlap
     ethr =  5.88E-06,  avg # of iterations = 10.0

     negative rho (up, down):  2.450E-02 0.000E+00

     total cpu time spent up to now is      341.1 secs

     total energy              =     -37.33586364 Ry
     estimated scf accuracy    <       0.00041499 Ry

     iteration # 10     ecut=    60.00 Ry     beta= 0.70
     Davidson diagonalization with overlap
     c_bands:  1 eigenvalues not converged
     ethr =  5.19E-06,  avg # of iterations = 20.0

     negative rho (up, down):  2.667E-02 0.000E+00

     total cpu time spent up to now is      375.8 secs

     total energy              =     -37.33569641 Ry
     estimated scf accuracy    <       0.00265366 Ry

     iteration # 11     ecut=    60.00 Ry     beta= 0.70
     Davidson diagonalization with overlap
     ethr =  5.19E-06,  avg # of iterations =  7.0

     negative rho (up, down):  2.426E-02 0.000E+00

     total cpu time spent up to now is      407.4 secs

     total energy              =     -37.33563408 Ry
     estimated scf accuracy    <       0.00021044 Ry

     iteration # 12     ecut=    60.00 Ry     beta= 0.70
     Davidson diagonalization with overlap
     ethr =  2.63E-06,  avg # of iterations =  2.0

     negative rho (up, down):  1.920E-02 0.000E+00

     total cpu time spent up to now is      438.2 secs

     total energy              =     -37.33560365 Ry
     estimated scf accuracy    <       0.00132694 Ry

     iteration # 13     ecut=    60.00 Ry     beta= 0.70
     Davidson diagonalization with overlap
     ethr =  2.63E-06,  avg # of iterations =  1.0

     negative rho (up, down):  1.526E-02 0.000E+00

     total cpu time spent up to now is      468.3 secs

     total energy              =     -37.33564812 Ry
     estimated scf accuracy    <       0.00001673 Ry

     iteration # 14     ecut=    60.00 Ry     beta= 0.70
     Davidson diagonalization with overlap
     ethr =  2.09E-07,  avg # of iterations =  4.0

     negative rho (up, down):  1.572E-02 0.000E+00

     total cpu time spent up to now is      499.2 secs

     total energy              =     -37.33563000 Ry
     estimated scf accuracy    <       0.00016188 Ry

     iteration # 15     ecut=    60.00 Ry     beta= 0.70
     Davidson diagonalization with overlap
     ethr =  2.09E-07,  avg # of iterations =  1.0

     negative rho (up, down):  1.373E-02 0.000E+00

     total cpu time spent up to now is      529.6 secs

     total energy              =     -37.33564532 Ry
     estimated scf accuracy    <       0.00003215 Ry

     iteration # 16     ecut=    60.00 Ry     beta= 0.70
     Davidson diagonalization with overlap
     ethr =  2.09E-07,  avg # of iterations =  1.0

     negative rho (up, down):  1.114E-02 0.000E+00

     total cpu time spent up to now is      560.0 secs

     total energy              =     -37.33565782 Ry
     estimated scf accuracy    <       0.00000855 Ry

     iteration # 17     ecut=    60.00 Ry     beta= 0.70
     Davidson diagonalization with overlap
     ethr =  1.07E-07,  avg # of iterations =  1.0

     negative rho (up, down):  1.062E-02 0.000E+00

     total cpu time spent up to now is      590.3 secs

     total energy              =     -37.33565499 Ry
     estimated scf accuracy    <       0.00005828 Ry

     iteration # 18     ecut=    60.00 Ry     beta= 0.70
     Davidson diagonalization with overlap
     ethr =  1.07E-07,  avg # of iterations =  1.0

     negative rho (up, down):  1.028E-02 0.000E+00

     total cpu time spent up to now is      620.7 secs

     total energy              =     -37.33565751 Ry
     estimated scf accuracy    <       0.00000517 Ry

     iteration # 19     ecut=    60.00 Ry     beta= 0.70
     Davidson diagonalization with overlap
     ethr =  6.46E-08,  avg # of iterations =  1.0

     negative rho (up, down):  1.010E-02 0.000E+00

     total cpu time spent up to now is      650.9 secs

     total energy              =     -37.33565756 Ry
     estimated scf accuracy    <       0.00000160 Ry

     iteration # 20     ecut=    60.00 Ry     beta= 0.70
     Davidson diagonalization with overlap
     ethr =  2.00E-08,  avg # of iterations =  1.0

     negative rho (up, down):  1.018E-02 0.000E+00

     total cpu time spent up to now is      674.4 secs

     End of self-consistent calculation

          k = 0.0000 0.0000 0.0000 (232938 PWs)   bands (ev):

   -19.9945 -10.6416  -8.2077  -8.2076  -8.0898  -1.4090  -1.4086  -0.5558

     the Fermi energy is    -8.1390 ev

!    total energy              =     -37.33565693 Ry

     total all-electron energy =      -152.863851 Ry
     estimated scf accuracy    <       0.00000043 Ry
     smearing contrib. (-TS)   =      -0.00370967 Ry
     internal energy E=F+TS    =     -37.33194727 Ry

     The total energy is F=E-TS. E is the sum of the following terms:
     one-electron contribution =     -49.86753597 Ry
     hartree contribution      =      25.92376166 Ry
     xc contribution           =      -8.90308702 Ry
     ewald contribution        =       8.66219315 Ry
     one-center paw contrib.   =     -13.14727909 Ry

     convergence has been achieved in  20 iterations

     negative rho (up, down):  1.018E-02 0.000E+00

     Forces acting on atoms (cartesian axes, Ry/au):

     atom    1 type  1   force =     0.00551442    0.00327095    0.00145680
     atom    2 type  1   force =    -0.00551442   -0.00327095   -0.00145680

     Total force =     0.009298     Total SCF correction =     0.000593

     negative rho (up, down):  1.018E-02 0.000E+00

     negative rho (up, down):  1.018E-02 0.000E+00

     negative rho (up, down):  1.018E-02 0.000E+00

     negative rho (up, down):  1.018E-02 0.000E+00

     negative rho (up, down):  1.018E-02 0.000E+00

     negative rho (up, down):  1.018E-02 0.000E+00

     negative rho (up, down):  1.018E-02 0.000E+00

     negative rho (up, down):  1.018E-02 0.000E+00

     negative rho (up, down):  1.018E-02 0.000E+00

     negative rho (up, down):  1.018E-02 0.000E+00

     negative rho (up, down):  1.018E-02 0.000E+00

     negative rho (up, down):  1.018E-02 0.000E+00

     negative rho (up, down):  1.018E-02 0.000E+00

     negative rho (up, down):  1.018E-02 0.000E+00

     negative rho (up, down):  1.018E-02 0.000E+00

     negative rho (up, down):  1.018E-02 0.000E+00

     negative rho (up, down):  1.018E-02 0.000E+00

     negative rho (up, down):  1.018E-02 0.000E+00

     negative rho (up, down):  1.018E-02 0.000E+00

     negative rho (up, down):  1.018E-02 0.000E+00

     negative rho (up, down):  1.018E-02 0.000E+00

     negative rho (up, down):  1.018E-02 0.000E+00

     negative rho (up, down):  1.018E-02 0.000E+00

     negative rho (up, down):  1.018E-02 0.000E+00

     negative rho (up, down):  1.018E-02 0.000E+00

     negative rho (up, down):  1.018E-02 0.000E+00

     negative rho (up, down):  1.018E-02 0.000E+00

     negative rho (up, down):  1.018E-02 0.000E+00

     negative rho (up, down):  1.018E-02 0.000E+00

     negative rho (up, down):  1.018E-02 0.000E+00

     negative rho (up, down):  1.018E-02 0.000E+00

     negative rho (up, down):  1.018E-02 0.000E+00

     negative rho (up, down):  1.018E-02 0.000E+00

     negative rho (up, down):  1.018E-02 0.000E+00
 BEEFens 2000 ensemble energies
             -0.685908376025610E+00
             -0.231022596988055E-01
             -0.123561236412068E+00
              0.470006334570924E+00
             -0.222578175117876E+00
             -0.145819083371787E+00
             -0.513369831485275E+00
             -0.103122380063937E+01
             -0.321206150351654E+00
             -0.368342974598248E+00
             -0.391168262156393E+00
              0.773858667412495E-01
              0.342378256957929E-01
             -0.815747345467135E-01
              0.374610065014624E-01
              0.506493551009992E+00
             -0.189387414319926E+00
             -0.616260491326273E-01
              0.275018950309951E+00
             -0.115827486907364E+01
              0.597595394463959E+00
             -0.201255833084810E+00
             -0.674886228332935E-01
             -0.901192130997951E-01
              0.511177405422956E-01
             -0.371393169896237E-01
              0.918386991977965E+00
             -0.295244434277585E+00
             -0.588419726986658E-01
             -0.602852956257809E+00
              0.682983739189176E+00
              0.214989982824076E-02
             -0.438915751521472E+00
              0.164390135421274E+00
             -0.355686832689397E-01
              0.337840969168117E+00
              0.259873880025752E-01
             -0.267477644917791E-01
              0.437552207030620E+00
             -0.101944161704744E+01
              0.580537669217448E+00
              0.129407457924012E+00
             -0.169215516718421E+00
             -0.284231968500742E+00
              0.137618260404790E+00
             -0.210195316483998E+00
              0.552190164321585E+00
              0.366889230386966E+00
             -0.177271665286239E+00
             -0.345028873713789E+00
             -0.337332113529028E+00
             -0.406281811485072E+00
              0.268060707656930E+00
             -0.539869589042082E+00
              0.179632881600472E+00
              0.638165865458671E+00
              0.821906420207171E+00
              0.330603458097937E+00
              0.156698536742901E+00
              0.359249892703159E+00
              0.980225732046006E+00
              0.142901998227256E+00
             -0.572326086218892E+00
             -0.819556352296438E-01
             -0.316353720838816E+00
              0.641176975228800E+00
             -0.714727974890067E+00
             -0.620782294465863E+00
             -0.387723642596098E+00
             -0.242664005882608E+00
             -0.372243350463064E+00
              0.296851655050620E+00
              0.148761992780964E+00
              0.181188422423745E+00
             -0.416005321624989E+00
             -0.370063914700365E+00
             -0.640417841920053E+00
              0.310314001693643E+00
             -0.380954047707912E+00
              0.363158494505182E+00
             -0.108057274402877E+00
             -0.279740887232756E+00
             -0.496426551039246E+00
             -0.155531342547619E+00
             -0.181235146175190E+00
             -0.136715329669936E+00
              0.407817189524698E+00
              0.855182779932298E+00
             -0.493170585344951E+00
             -0.816975269576800E+00
             -0.184230854362349E+00
              0.112341383393932E+01
             -0.600345411416647E+00
              0.320948640554863E+00
             -0.125693231693457E+00
             -0.592526866956398E+00
              0.277057617324159E+00
              0.298826565835315E+00
             -0.164183503996265E+00
              0.289475685678895E+00
             -0.245683367575245E+00
             -0.671651654550943E+00
              0.109854348436288E+01
              0.472854438646302E+00
              0.191096099489481E+00
              0.129555165304448E+00
              0.278270698128980E+00
              0.839663093364856E+00
             -0.283359453577938E+00
              0.269634703624887E-01
             -0.142930626256132E+01
              0.168013314931374E+00
             -0.686120670837996E+00
              0.131230102073355E+00
              0.231047674476811E+00
             -0.397444625245560E+00
             -0.514340792772251E+00
              0.119985810779859E-01
             -0.335017401573673E+00
              0.488308129663480E+00
             -0.472788258168363E+00
             -0.116635300340389E+00
             -0.405013504766405E+00
             -0.239391379254794E-01
              0.618479601391309E-01
              0.272728736800548E+00
              0.659730759744459E-02
             -0.536843067868507E-01
              0.725061344842841E+00
              0.970201159022251E+00
              0.533320208093014E+00
              0.638182319611272E+00
             -0.128700946270835E+00
              0.744902752950680E-01
              0.526999704706559E+00
              0.909835827154331E-01
             -0.808015402606834E+00
             -0.483308987000940E+00
             -0.520128193263993E+00
             -0.306676330772900E+00
              0.269823057297157E+00
             -0.128723816385695E+01
             -0.139913444680834E+00
              0.497293441980090E+00
             -0.421095506238140E+00
             -0.305929418037557E+00
              0.641724948324526E+00
              0.523644061822209E+00
             -0.304206873891583E+00
              0.404183444837192E+00
             -0.264084901320835E+00
              0.392331484399167E+00
              0.510390790074822E-01
              0.764331748310356E-01
             -0.855984501495098E+00
             -0.490305776779360E+00
             -0.825578986066908E-01
             -0.630180175012094E-01
             -0.452359804167174E+00
              0.119378357907897E+01
             -0.988344723608225E-01
             -0.268100106781071E+00
              0.384367282186997E+00
             -0.453712268663366E+00
             -0.406735408987216E+00
              0.346757629614537E+00
              0.137280533635594E+00
              0.109284523719120E+00
              0.194177540446596E+00
             -0.107212562444871E+00
              0.861977002827081E-01
              0.599639505401092E+00
             -0.254156200503300E+00
              0.238339801668352E+00
              0.931051409297611E+00
              0.339045974143754E+00
             -0.354883222760725E-01
             -0.233180396502237E+00
              0.164228169390608E+01
             -0.287405059510310E+00
              0.425593430987654E+00
              0.346188884831803E+00
              0.257468914211083E+00
              0.961799684289523E+00
              0.470450024284863E+00
             -0.420128255127729E-01
              0.273695967672094E+00
              0.560985316851650E+00
              0.392430062060586E+00
             -0.651864209074843E+00
              0.100064777654431E+01
             -0.906938087882094E+00
             -0.854015969449219E-01
              0.574755786643184E+00
              0.219622312720861E+00
              0.646347179584650E-01
              0.257282066435699E+00
              0.159246775094469E+00
              0.332760363844095E+00
             -0.654861006499076E+00
              0.414886134827332E-01
             -0.245218980708994E+00
             -0.451743373929954E-01
             -0.515266710610041E-01
             -0.160775322364543E+00
             -0.707294801032403E-01
              0.865377627175790E+00
             -0.439791366280871E-01
             -0.288039236681530E+00
             -0.446911214180912E-02
              0.150013180750894E+00
             -0.683726045653076E+00
             -0.630758274893263E+00
             -0.348363016606295E+00
             -0.670159149210150E+00
             -0.198466463509107E+00
             -0.417138721265735E+00
              0.184746421630844E+00
              0.329132739444699E-01
             -0.137878612066041E+00
             -0.796248935707415E-01
              0.457747520661433E-01
             -0.102091378357719E+00
              0.695916088253599E+00
             -0.947794851772438E+00
             -0.143672662144237E+00
             -0.122786618357634E+00
              0.149985459162826E+00
              0.256735062384756E+00
             -0.543994436231664E+00
             -0.117544406006501E+00
              0.464499212495059E+00
             -0.180303650117158E+00
              0.144824517335752E+00
              0.334232315092692E+00
             -0.176654220515045E-01
              0.120018217963351E+01
             -0.790178190856121E-01
             -0.357198536562058E+00
             -0.169354457191679E-01
             -0.310252993001984E+00
              0.569497691277088E+00
             -0.542947924163359E+00
              0.164406368232674E+00
              0.485431336472869E+00
             -0.125337250326666E+00
              0.124512783263338E+01
              0.134343806069680E+01
             -0.755609115038036E+00
              0.617153170937212E+00
              0.272465365350940E+00
             -0.605861193977330E+00
              0.160715810555793E+00
              0.491832179924314E+00
              0.511260491588050E+00
              0.429395176962915E-01
              0.217510763125144E+00
              0.809654665985718E+00
             -0.242699495698873E+00
              0.936450754625047E-01
              0.686665449091143E+00
             -0.368423147252428E+00
             -0.282382245215751E+00
              0.653005044202233E+00
              0.322482865865840E+00
              0.798815572440092E+00
              0.387938978894916E+00
              0.162371557645843E+00
              0.251252518825384E+00
              0.457031719924412E+00
             -0.595788061370064E+00
              0.950610210111709E-01
              0.347909092519392E+00
              0.119351164762199E+00
              0.265680796475928E+00
             -0.676197510122300E+00
              0.325516185848091E+00
             -0.449442533714732E+00
             -0.335660848899587E+00
              0.235116348996749E+00
             -0.689588861702215E-01
              0.657884353638623E+00
             -0.113069206513384E+00
              0.321335630405441E+00
              0.314021746079478E+00
              0.800261103794858E+00
              0.543402030753233E+00
              0.544422281722517E+00
              0.163153026246960E-01
             -0.142921732498901E+00
             -0.311168645824952E+00
              0.890767713517031E+00
              0.867559881909630E+00
              0.422367364980194E+00
             -0.318825716623993E+00
              0.521358070819057E+00
              0.379169389256750E-01
              0.154179743651497E+00
              0.749618439157345E+00
             -0.313359031204561E-01
             -0.934144883275851E-01
             -0.194335515564859E+00
             -0.688065048325706E+00
              0.102911084720587E+01
              0.569248235158509E+00
             -0.699405250810333E+00
             -0.246544971224703E+00
              0.254813465563951E+00
             -0.102317593442128E+00
              0.700155419118242E+00
              0.152138416238990E+00
              0.861875632510238E+00
              0.362530167804866E+00
             -0.221450510694759E+00
              0.170905650981270E+00
             -0.759030392223314E-01
             -0.241711092489538E+00
              0.182644502960625E+00
              0.149635289026802E+00
              0.981989575591128E+00
              0.804583976929986E+00
              0.609339440696754E+00
              0.691917564235634E+00
              0.837642424869769E-01
             -0.275534579646338E+00
              0.141352736454831E+00
             -0.332447043028938E+00
             -0.622049841461633E+00
             -0.581538035123976E+00
             -0.350953751959693E+00
             -0.113932242201899E+01
             -0.417140463789914E+00
             -0.923496609640684E+00
              0.234595154986470E+00
             -0.469694886537380E+00
              0.563471013903591E+00
             -0.106537047621075E+01
             -0.316016887316695E+00
              0.362996670974183E+00
              0.230500075416846E+00
             -0.984521605245648E+00
              0.543650005222007E+00
             -0.301056147639338E+00
              0.586290342742531E+00
             -0.259090344547355E+00
             -0.827287978565379E+00
              0.181274100892195E+00
             -0.695316062374916E+00
              0.527748997985178E-02
             -0.281464152020518E-01
              0.420680368242627E+00
              0.133250911598613E+01
             -0.440624541124701E+00
             -0.388350283316568E+00
             -0.826243749449054E-01
             -0.695445614701784E-01
             -0.845758122478842E+00
             -0.580616625376214E+00
              0.513714545588640E+00
             -0.157177145848862E+00
              0.259355307794244E+00
             -0.513372952993409E+00
             -0.180209297943345E+00
             -0.431250200042978E+00
              0.504630551130085E+00
              0.101326901922783E+00
             -0.262664426321132E+00
             -0.208858442282414E+00
              0.162153442297739E+00
             -0.750425452753127E-01
              0.409349704190584E+00
             -0.278335843305238E+00
              0.150061349312981E+00
              0.374052554274710E+00
              0.114417478874079E+00
             -0.271721361061865E+00
              0.163008696828999E+01
              0.656571938853943E+00
              0.110625331535494E+00
              0.550312167369054E-01
             -0.646981894487515E+00
              0.366118259409891E+00
             -0.840990905723922E+00
             -0.371713259280005E+00
             -0.643178555890358E+00
             -0.195943821237024E+00
              0.640993386604222E+00
             -0.623588828834330E+00
              0.306972591116145E+00
             -0.554237551447079E-01
              0.480208815671079E-02
             -0.310932848766116E+00
             -0.437294444893028E+00
             -0.950513424853714E-01
             -0.315680278701413E+00
             -0.213932722934771E+00
             -0.416024761574081E+00
             -0.496191612937156E-01
             -0.332327133973277E+00
             -0.504119628018611E+00
              0.207197271260219E+00
             -0.965492690888872E-01
              0.278055452449502E+00
              0.813829786471643E-01
             -0.809378433437060E+00
             -0.527072724319027E+00
             -0.558944354854708E+00
              0.308951484437952E+00
             -0.882827753494997E-01
             -0.630568061444775E+00
              0.617002603398511E+00
             -0.443416287784510E+00
              0.641801931044513E+00
             -0.339720715791667E+00
             -0.520699735721530E+00
              0.231054154250541E+00
             -0.765825921724813E+00
             -0.322154874181167E+00
              0.605191792019623E+00
              0.217088978460684E+00
             -0.496658865646059E+00
              0.608102500170522E+00
             -0.173419520748091E+00
             -0.408791802523553E+00
             -0.307708159099989E+00
             -0.554344831459242E+00
              0.297476094627545E+00
             -0.927079143046767E+00
             -0.793298539402346E+00
             -0.930769475046835E-01
             -0.314705112544126E+00
             -0.649597340987602E+00
              0.810665477862623E+00
              0.147090031870940E+01
             -0.196425804682451E+00
             -0.524299305211988E-01
             -0.623142051726179E+00
              0.712356717067182E+00
              0.233845930642604E+00
             -0.243289553818843E+00
             -0.374044777932046E+00
              0.146762979995433E+00
             -0.622285860658665E+00
             -0.121011974005769E+00
             -0.888874419008311E+00
              0.363831018552028E+00
              0.984997609719263E-01
             -0.584176766768003E-01
             -0.149195515241817E+00
             -0.464552451628764E+00
             -0.158483057387090E+00
              0.146351513935895E+01
             -0.168181013574679E+00
             -0.536552289276691E+00
             -0.748134733150770E+00
              0.163153520612470E+00
             -0.420722899879801E+00
              0.126579380697903E+00
              0.359379046454585E+00
              0.571123054313545E-01
              0.388486358283173E+00
              0.203619884220773E+00
              0.618234532993299E+00
              0.243174631367683E+00
             -0.400477484428659E+00
              0.616673608313481E+00
              0.354843455161608E+00
              0.131912614527057E+00
              0.381575436849057E+00
             -0.358492558454315E+00
              0.748729862595376E+00
              0.297492746759961E+00
             -0.377991572822301E+00
             -0.538983958754517E-01
             -0.179598368346991E+00
              0.152049707062039E+00
             -0.257105249257246E+00
             -0.151789865049853E+00
             -0.136948507828912E+00
              0.864871896746445E+00
              0.627980112812181E+00
             -0.652713476927107E+00
             -0.980944909080341E-01
             -0.517522842803575E+00
             -0.133370668780563E+00
             -0.218737075519232E+00
              0.126081640554817E+00
             -0.260174704341983E-01
             -0.313498481939952E+00
              0.211613364629306E+00
             -0.105997181935623E+00
             -0.606504332215141E-01
              0.927039047031280E+00
              0.140701449000579E+00
             -0.908413624753746E+00
             -0.397348212350029E+00
              0.103342965649678E+01
              0.250381447355109E+00
             -0.900864253599147E-01
              0.116602584439595E+01
             -0.154916886881184E+00
             -0.781069943067685E-01
             -0.138608188384409E+00
              0.176973871297763E+00
              0.375903503247104E+00
              0.217910022972962E-01
              0.298446693146842E+00
             -0.105311498516017E+00
             -0.446334903772057E+00
             -0.430135004156503E+00
             -0.504305849847708E+00
              0.421969452594328E+00
              0.152769122453066E+00
              0.401487389634150E+00
              0.170292110402020E+00
              0.973560354948728E+00
              0.223357285688333E+00
             -0.823416946479782E+00
             -0.356677826560350E+00
              0.243938431945712E-02
             -0.293588525567634E+00
              0.680137288254829E+00
             -0.166396322180184E+00
              0.180947692624352E+00
              0.589878956489839E+00
             -0.865189331705388E+00
              0.156378412215349E+01
              0.210582941205476E+00
              0.252385643309369E+00
              0.407570851663229E+00
              0.183262202391425E-01
             -0.141860718971194E-01
              0.337251757489770E+00
             -0.380539051577343E+00
              0.940990331818628E+00
              0.820537543666188E+00
             -0.419588598924794E+00
              0.175356847587788E+00
              0.768961739885309E+00
             -0.216167652563037E+00
              0.231889190031781E+00
              0.329312818441484E+00
              0.429542113320790E+00
             -0.780449984833446E+00
             -0.491190597517637E-01
             -0.256288557605892E+00
             -0.580935849855542E-01
             -0.842941200790669E-01
              0.984249922118634E-01
             -0.115382734546248E+00
             -0.331520394700004E+00
              0.198825245959120E+00
              0.512964575401744E-01
              0.564096436867440E+00
             -0.508952188477381E+00
              0.509644517784722E+00
              0.549735224599851E+00
             -0.616686405522064E-01
              0.773887884032730E+00
             -0.714463492872611E+00
             -0.109924215680349E+01
             -0.102277040118974E+00
             -0.807945313639253E-01
             -0.128106500305458E-01
              0.841859314917457E+00
             -0.773087073126844E-03
              0.460425688632681E+00
              0.651579519314746E+00
              0.414947259681456E+00
             -0.868527292762771E-01
              0.615111180409928E+00
             -0.189492735233736E+00
             -0.420056746024212E+00
             -0.356322544728442E+00
              0.123810356485280E+00
              0.353321050823084E+00
             -0.140513800050326E-01
              0.340353558614110E+00
              0.597547833628376E-02
              0.577512487154082E+00
              0.158169353682772E+00
              0.889339427449408E-01
              0.209558520415394E-01
              0.309811752335998E+00
              0.433327845633582E+00
              0.142449628037386E+00
             -0.362587371393319E-01
             -0.578437735790802E+00
              0.330716480280860E+00
              0.223683918160416E+00
              0.331896177062973E+00
              0.313909619611291E+00
              0.388432928628802E+00
             -0.101902275602236E+00
              0.379514822430488E+00
             -0.316927018056694E+00
             -0.105610260881974E-01
             -0.551418072356705E+00
             -0.360565682017634E+00
              0.456397951506906E+00
             -0.930392337457947E+00
              0.249192740442977E+00
              0.145122610418248E+00
              0.923757347443046E+00
             -0.102077142426416E+00
              0.360922053395524E+00
             -0.117237095918598E+00
             -0.532722637246690E+00
             -0.674653037839884E+00
             -0.185885601900174E+00
             -0.973117848060534E+00
              0.727248068839801E-01
             -0.206202122558376E+00
              0.349831664014935E+00
              0.275387349780785E+00
             -0.317803400062281E+00
             -0.327350937972223E+00
              0.456651296225827E+00
             -0.628082580701690E+00
             -0.150627769862826E+00
             -0.174467453348619E+00
              0.302057329048277E+00
              0.803681108060270E-01
              0.423474861932638E-01
             -0.156822800821110E+00
              0.574635466030442E+00
             -0.681079835550587E+00
              0.595513932640133E-01
              0.646120611851039E+00
             -0.399006255321809E+00
              0.403039125897937E-01
              0.352830342286898E-01
             -0.677774100880418E+00
             -0.375631918747101E+00
             -0.860428277932954E-02
              0.345596123129248E+00
              0.383104247497593E+00
              0.443446225766642E-01
             -0.145671293259830E+00
              0.181842473357221E+00
             -0.423064867208224E+00
             -0.618574663630245E-01
             -0.555266343684795E+00
             -0.280343493645231E+00
              0.535785069802342E+00
             -0.324198191887692E+00
              0.760773581418924E+00
             -0.266271185448096E+00
              0.335080880563375E+00
              0.276446585101653E+00
             -0.639018779197432E+00
             -0.251994789215605E+00
              0.108710193783047E+00
             -0.471237753749605E+00
             -0.439699072862940E+00
             -0.974290252939536E+00
             -0.583394916688324E+00
             -0.524277905691307E+00
             -0.480919800349452E+00
              0.338177351139923E-02
              0.278772066843862E+00
              0.143139571179647E+00
              0.320656495589169E+00
             -0.629333394607159E+00
              0.145519161348379E+00
              0.320424643908864E+00
             -0.728331353684653E+00
             -0.590041161244313E+00
             -0.429036560307458E+00
             -0.375080984945465E+00
              0.143633021571429E+00
             -0.408722868593436E-01
             -0.426634724034120E+00
              0.277012343400463E+00
             -0.256440701629834E+00
              0.552383766330611E+00
             -0.939805824551549E+00
              0.703122870468103E+00
             -0.149151983076138E+00
             -0.470344843134332E+00
             -0.293344229382108E+00
             -0.179867482793479E-01
              0.529589139995173E+00
             -0.739451803759140E+00
             -0.131397943433259E+00
             -0.180736573927968E+00
              0.422117107222180E+00
              0.855228662462956E+00
             -0.108570639851349E+01
              0.970783207071257E+00
              0.389760569531499E+00
             -0.811199663179702E+00
             -0.311728722050795E+00
              0.851425849826533E+00
              0.607299431810459E+00
             -0.229619551754618E+00
             -0.730934661525455E-01
              0.204073262905098E+00
              0.852676755322009E+00
             -0.643546061705922E+00
              0.124766702967103E+00
             -0.946116709064456E-01
              0.254794231374534E+00
             -0.745308156617809E+00
             -0.154213750940920E-01
             -0.268198270296738E+00
              0.515276538641473E+00
              0.396076156381743E+00
             -0.962527247607899E+00
             -0.501263101310727E+00
             -0.208957829954890E+00
             -0.494411263936420E+00
             -0.132096829183634E+00
             -0.168060899643163E+00
              0.492216218041563E+00
              0.453922689777963E+00
              0.160786056541173E-02
             -0.488322473016399E+00
             -0.930913417483675E+00
              0.549262039770603E+00
             -0.482008182867042E+00
             -0.410126286564978E+00
              0.785992974522602E-01
             -0.411189053305810E+00
             -0.429015512898127E+00
             -0.341737556115689E+00
             -0.568751218710482E+00
             -0.245029034679787E+00
             -0.529104833575495E+00
              0.580745701075312E+00
              0.610601791053919E+00
             -0.130893880959631E+00
             -0.205986474784400E+00
              0.445412118186548E-01
              0.448025481421464E+00
             -0.892588895150692E+00
             -0.252482109291087E+00
              0.519510278068058E+00
              0.788339969950371E+00
             -0.898672030562366E-01
              0.971313973081225E-01
              0.571817049285646E+00
              0.155830029547748E+00
              0.409778247402470E-01
             -0.419092936571379E+00
              0.139225113226509E+00
             -0.340160546073950E+00
             -0.577480446339163E-01
             -0.238343425500107E+00
             -0.143022102662019E+00
              0.275112993917573E+00
              0.841691503860939E+00
             -0.849023658019552E-01
              0.182900768767442E-01
             -0.976907186472752E+00
             -0.189650250984527E+00
             -0.376592827540449E+00
             -0.273089225028089E-01
             -0.530336267158949E+00
              0.990192136576988E+00
              0.924447628542176E+00
              0.199929210745575E+00
             -0.264212526788556E+00
              0.203689712139228E+00
              0.200792894203514E+00
             -0.496536030593627E+00
             -0.112484796943011E+00
              0.226513251442201E+00
              0.116142114147572E+00
              0.540497611754992E+00
              0.406422624237654E+00
             -0.212821319955596E+00
              0.201870021953958E+00
             -0.104786201248504E+01
             -0.127831949061099E-01
              0.959992812668867E+00
              0.197700072827149E+00
             -0.410359489933292E-01
              0.282653569960043E+00
             -0.262297298771420E+00
              0.906338186083795E+00
             -0.226931419812461E+00
              0.814698458673598E+00
              0.414119836667802E+00
             -0.477563123678107E+00
              0.358049801499775E+00
             -0.299813680236107E+00
             -0.728740057154099E+00
             -0.761074491346232E-01
             -0.577900084003989E+00
             -0.553032134630087E+00
             -0.154389768240755E-01
              0.419385478426222E+00
             -0.161111772754497E+00
             -0.312799036900282E+00
              0.718922326371616E-01
             -0.695096256338735E+00
             -0.287745076978899E-01
             -0.933000764248219E+00
              0.536224546254547E+00
             -0.409665650295505E-01
             -0.528312086251109E+00
             -0.138007725671392E+00
              0.184217001416830E+00
             -0.421832082269809E+00
             -0.469610069403804E+00
              0.993626797103712E+00
             -0.302940800146409E+00
             -0.378286320717027E+00
              0.349915088332600E+00
             -0.253765658390978E+00
              0.631849283344854E+00
             -0.355210922032434E-01
              0.170062095024499E-01
              0.119414066428802E+01
             -0.704172273965105E-01
             -0.410974848179748E+00
             -0.526483233865346E+00
             -0.536102835663126E+00
             -0.399681990052321E+00
              0.310978205886999E+00
              0.349548875950163E+00
              0.298077948904329E+00
              0.788451563771286E+00
              0.714457274607296E-01
              0.250392833780368E+00
             -0.605450903359603E+00
              0.238734810265941E-01
             -0.145360701795878E+00
             -0.291571828268291E+00
             -0.996888124639685E-01
              0.350759400485396E+00
              0.410411605612776E+00
             -0.338198584115759E-01
              0.157481433723337E+00
              0.278094046738088E+00
              0.342491991553145E+00
             -0.261587238080137E+00
             -0.101275604585885E+00
             -0.243088879066722E-02
             -0.279607879345233E+00
             -0.162080344454827E-01
             -0.458426459069702E+00
              0.864160078334200E+00
              0.666826058937142E+00
             -0.207505950435981E+00
              0.186617561103778E+00
             -0.677106811869945E-01
             -0.366914556772426E+00
              0.408066516226727E+00
             -0.999214133388771E-01
              0.405849797031759E+00
             -0.502275728703852E+00
              0.189910896679891E+00
             -0.829825815035417E-01
             -0.567267099048479E+00
             -0.259839380727517E+00
              0.254061648016611E+00
             -0.105104636105115E+01
              0.416410429638925E+00
              0.493074411162712E+00
             -0.114153589765044E+00
             -0.845435763130697E-01
             -0.461985372993157E-01
              0.288844981790546E+00
             -0.373496280181413E+00
              0.326596525334005E+00
              0.342374050978485E+00
             -0.939104265536606E+00
             -0.398253133157129E+00
              0.257471944330935E+00
             -0.129778287004489E+00
              0.543173930331212E+00
             -0.665126537344398E+00
             -0.129092513345365E+00
             -0.424649179680990E+00
             -0.140935661762164E+01
              0.837863853800874E+00
             -0.625715091359187E+00
             -0.725636652477273E+00
              0.649741660870240E-01
              0.138026938630806E+01
              0.760722254203849E-01
             -0.360019558219165E+00
             -0.186167338063932E-01
             -0.394997202545513E-01
             -0.898598731672367E+00
             -0.576484977996955E+00
              0.911587367263218E+00
             -0.137585613738010E+00
             -0.374973393694303E+00
              0.500742268869947E+00
             -0.351985092619667E+00
              0.352526146579433E+00
              0.516188427358530E+00
             -0.555961567869711E+00
             -0.304803810692380E+00
             -0.340067100873996E+00
             -0.205169550404726E+00
             -0.202840887231873E+00
             -0.214604899156259E+00
              0.220814560208176E+00
             -0.385923945257178E+00
              0.294307311651535E+00
              0.573403571085597E+00
             -0.503320240427655E-01
             -0.233866140401335E+00
              0.175293899682985E+00
              0.591286982645261E+00
              0.590926831485322E+00
              0.139773385794670E+00
             -0.123868041155512E+00
             -0.136548932303867E+00
             -0.570416544913624E+00
              0.435460919036895E+00
             -0.253343453342695E+00
              0.253299467708288E+00
             -0.139226969211799E+00
              0.263822382827500E+00
              0.189923017551800E+00
             -0.872754890283489E+00
             -0.268736735453313E+00
             -0.848156852259354E+00
             -0.439444022345088E+00
              0.377514163313466E-01
             -0.219978367178289E+00
              0.387532081566531E+00
             -0.306531783672199E+00
              0.457045720127999E-01
              0.729078561266236E-01
              0.735629878980191E+00
              0.369305604014327E+00
             -0.363171033977218E+00
             -0.316617817909732E-01
              0.168661324576768E+00
              0.400711297231868E+00
             -0.612183336950034E-02
              0.614738382739833E+00
              0.272745363841478E+00
              0.968234644004588E+00
              0.291126596579994E-01
              0.650026262631375E+00
             -0.299716932338252E+00
             -0.417227956036343E+00
              0.168382286568374E-01
              0.122159364579959E+00
              0.232749130338019E+00
             -0.248334703254665E+00
             -0.118238993965890E+00
              0.264528847747219E+00
             -0.516014712526245E+00
             -0.656041671844607E+00
              0.861227386337781E+00
             -0.617817752728635E-01
             -0.374129879827806E+00
             -0.556160794880765E-01
             -0.149205315658202E+00
              0.496450546271646E+00
              0.389066700407155E+00
             -0.223142168693874E+00
              0.135148823963114E-01
             -0.269176995076523E+00
             -0.387459701913718E+00
             -0.242527943369271E+00
             -0.104833168304212E+01
              0.302059835199366E-01
             -0.660659823827106E+00
             -0.638932999986104E+00
             -0.378351561183898E+00
              0.256606032703860E+00
             -0.404694476277662E+00
              0.271194593327517E+00
             -0.700027476159638E+00
             -0.192187359297025E-02
             -0.450691876829634E+00
              0.968891110965349E-01
              0.988352945083476E-01
              0.390597771874052E+00
             -0.233009109584031E+00
             -0.185382075623798E+00
              0.349076841309846E+00
              0.626545906844348E+00
              0.350131422767413E+00
              0.131025768536393E+00
             -0.803942575755232E+00
             -0.181666033556017E+00
             -0.298359733291743E+00
             -0.653548693689963E+00
              0.455544529103840E+00
             -0.374048667846786E+00
             -0.837395783974384E-01
             -0.304581067453526E+00
             -0.105107255983355E+01
              0.591998560864463E+00
             -0.200190967649373E+00
              0.411239607761543E+00
             -0.786842621720412E+00
              0.706829136072669E+00
              0.645709307018336E-01
             -0.262881553752499E+00
              0.122958952866882E+00
             -0.202437203358622E+00
             -0.646822596951465E+00
              0.178760123873456E+00
              0.445901880226654E+00
             -0.213210820121184E-01
             -0.369546306931386E+00
             -0.179854915779244E+00
              0.224526650004629E+00
              0.406258722955715E+00
              0.653184528030918E+00
              0.232832581743661E+00
             -0.251137706960552E+00
              0.110325812916887E+01
              0.217401637266149E+00
              0.527382985117639E+00
             -0.189341647099012E+00
              0.306204083267460E+00
              0.267248604818990E+00
             -0.656832952453575E+00
             -0.236472226290517E+00
             -0.440061760884528E+00
             -0.462379220622027E+00
             -0.138455340172550E+00
             -0.810507249752446E-01
             -0.517429015633546E+00
             -0.117134232369495E+01
             -0.288338704253097E+00
              0.138925023816402E+00
              0.724393323081971E-01
              0.188478738142951E+00
              0.424821700486901E+00
              0.101037416676025E+00
              0.333487392181646E+00
             -0.458747373290578E+00
              0.460160548205173E+00
             -0.416344596753961E+00
             -0.711936637086963E+00
              0.225952478077834E+00
             -0.467127164205211E+00
             -0.421194164778547E+00
             -0.170044119669506E+01
             -0.776794672368202E-01
              0.912082644324120E+00
              0.415040072016743E+00
             -0.102184179237325E+00
             -0.118782637127542E+00
              0.501336906536769E+00
              0.684140847473052E+00
             -0.412690045919930E+00
             -0.137834185378195E+00
             -0.392389420274248E+00
             -0.356143937665915E+00
             -0.309528372220857E+00
              0.102616393167979E+00
              0.723398911218249E+00
             -0.688478759405181E+00
             -0.584616549783995E+00
              0.518698393037855E-01
             -0.157433620869635E+00
             -0.176292967921368E+00
             -0.947369493053461E+00
              0.695271565003893E+00
              0.199146231679758E+00
              0.111498800248719E+00
              0.549570254686288E+00
             -0.356664906077836E+00
              0.357149735565694E+00
              0.302937999976824E+00
             -0.308915716723046E-02
             -0.845545113740356E-01
              0.771106731502017E-01
             -0.172752387824849E+00
              0.580750189342136E+00
             -0.414836495589884E+00
              0.513026153373443E+00
              0.912765235403099E-01
              0.191328646159988E+00
              0.216200357437263E+00
             -0.870556909833755E+00
              0.119034238986006E+00
             -0.710201535053240E+00
             -0.509216955501489E+00
             -0.501725425270391E+00
             -0.573453265595989E+00
             -0.448322256673883E-02
              0.210065442019430E+00
              0.536696178202329E+00
              0.726229714445780E-01
              0.160442430309415E+00
             -0.733917077986631E+00
             -0.296474994123650E+00
              0.340871464624503E+00
             -0.641809424962445E-01
             -0.418186373537597E-01
             -0.103443247819805E+00
              0.376066281968253E+00
             -0.959242506670008E+00
              0.144250631397587E+00
              0.200746029577420E+00
              0.415333182533511E+00
              0.390306696008395E+00
             -0.598994743206275E+00
              0.171844843552154E+00
              0.801709674974633E-01
              0.651064832637216E-01
              0.779763148506012E-01
             -0.208740810101316E+00
             -0.474637337162179E+00
              0.192074745223788E+00
              0.619912150578886E+00
              0.304219930339755E-02
              0.150141650115213E+00
              0.145464942051595E+00
             -0.331507303553587E+00
             -0.365222023075459E+00
             -0.131733092582508E+01
             -0.390463400052364E+00
             -0.647478777156149E+00
             -0.615343760875655E-01
             -0.739588295461960E+00
              0.802182634946236E+00
             -0.367145432826765E+00
             -0.587818514103407E+00
             -0.166457381390225E+01
              0.704974997545207E+00
              0.162912472995174E+00
              0.143474572149278E+00
             -0.645277731155156E+00
              0.464896169554736E-01
             -0.187354568832917E+00
             -0.324456004264712E+00
              0.100208619087905E+00
              0.353891505323794E+00
              0.450404848560870E-01
             -0.232539888773512E+00
              0.498999045781021E-01
              0.191906938362014E-01
              0.996200982921778E-01
             -0.710327576983139E+00
              0.792214010142333E+00
             -0.442740182122184E+00
             -0.286005517807668E+00
             -0.576453212930956E+00
             -0.119059145581316E+01
              0.469892212421871E-01
             -0.628242052499201E+00
             -0.178334816451773E+00
              0.324031535728215E+00
             -0.296336199888147E+00
             -0.137030322638286E+00
             -0.139140150970374E+00
             -0.186493948401965E+00
              0.492349289094491E-01
              0.551826326142354E+00
             -0.517084827541561E+00
              0.112609080991514E+01
             -0.286852695849188E+00
              0.333118151642620E+00
             -0.223632124771247E+00
              0.124746053635330E+00
             -0.127352304362852E+00
              0.463585627369176E+00
              0.654397278301921E+00
              0.196637265108063E+00
              0.440587942026918E+00
             -0.300934663857247E+00
             -0.912772900042595E-01
             -0.241619512807951E+00
              0.687733661799722E+00
              0.594940877222559E+00
              0.429956806205062E+00
             -0.128089600707494E+00
             -0.269951878033738E+00
              0.263122244547020E+00
             -0.321354598560758E+00
             -0.157504076725598E+00
             -0.562382371115189E-01
             -0.382271554008446E+00
              0.515497725990314E+00
             -0.125738911223242E+00
              0.390017246806981E+00
              0.254549622579426E+00
              0.151402644136848E+00
             -0.359495771151113E+00
              0.252338856251964E+00
             -0.154444276728659E+00
             -0.768075198321734E-01
             -0.575627063928819E-02
             -0.500807458991190E+00
              0.814423115330241E+00
             -0.276479055353661E+00
             -0.382246895177740E-02
              0.269331964975555E+00
              0.221685779078797E+00
              0.825436575534306E+00
             -0.227814871120871E+00
              0.795918719068214E+00
              0.712417201211716E+00
             -0.985782079370522E+00
              0.663408684687341E-01
             -0.192907311117207E+00
              0.149596865128663E+00
              0.486211132635836E-01
              0.247556177299357E+00
              0.682896000765842E+00
              0.109355016036213E+01
             -0.770031610872835E+00
              0.804078711434570E+00
             -0.108617430379214E+01
             -0.940683440310597E+00
             -0.169134475231945E+00
             -0.998627451651579E-04
              0.851168373305122E+00
              0.328735504401913E+00
             -0.124084092427433E+00
             -0.863085783266537E+00
              0.710327816871273E+00
             -0.419288583907144E+00
              0.124664429563497E-01
             -0.660764370329326E-01
              0.137098782410034E+01
             -0.228366779768302E+00
             -0.112358162312140E+01
              0.322495253409707E+00
             -0.173785922881041E+01
              0.132092976391357E+00
             -0.411124780871040E+00
             -0.193208423780502E+00
             -0.272707696507482E+00
             -0.645635869863038E+00
              0.387780930100639E+00
             -0.400358539678246E+00
             -0.151481120724427E+00
             -0.803466762766433E+00
             -0.408905827981165E-01
             -0.577095727950874E+00
             -0.828740093029095E+00
             -0.109696905773298E+01
              0.737991329299894E-01
             -0.410143626570386E+00
              0.137005315167276E+00
             -0.160849123392529E+00
             -0.888543640710320E+00
             -0.688867927744945E+00
             -0.605718956230018E+00
             -0.645474378407738E+00
              0.553421389411205E+00
              0.406911636383920E-01
             -0.538470424174955E+00
             -0.268487039140651E+00
             -0.306380928172658E+00
              0.459688489694243E+00
             -0.317890918012478E+00
             -0.294379744635136E-01
             -0.355193293999410E+00
             -0.415647522021902E+00
             -0.456428397411767E+00
              0.424349099883864E+00
             -0.134958436325250E+00
             -0.998577194510091E+00
              0.815257152816700E+00
              0.470275609219167E+00
              0.207200447128786E-01
             -0.878189289238959E+00
             -0.787472750488762E+00
              0.403577516486084E-01
             -0.117291289380628E-02
             -0.355984328597453E+00
             -0.452618338598580E+00
              0.305268767080892E+00
             -0.418572813345817E-01
              0.293392222366088E+00
              0.513281403385474E+00
              0.365510942912842E+00
              0.264686804287695E+00
              0.225570349321530E+00
             -0.242199023260058E+00
             -0.174163127341467E+00
             -0.211960356884880E+00
             -0.415917707726692E+00
             -0.485298289845563E+00
             -0.629661445006875E+00
             -0.376758191476426E+00
             -0.138109540072195E+00
             -0.772851549315179E+00
             -0.207176850671636E+00
              0.403719697783897E+00
             -0.933869304486657E+00
              0.406777094784723E+00
              0.335607932043181E+00
             -0.795045775408483E+00
             -0.586295342157854E+00
             -0.251619014347203E+00
              0.117532754157072E+00
             -0.449119745604049E+00
              0.810808645140805E+00
              0.716878299029232E+00
             -0.826140046874396E+00
              0.424934148198376E+00
              0.387971532802447E+00
              0.105432403334755E+00
              0.198363932153952E+00
             -0.459584868056675E+00
             -0.169578278339193E+00
              0.798424515584237E-01
              0.223327380121008E+00
              0.429497248014714E+00
             -0.567039460991185E+00
             -0.129510268539927E+00
              0.159575942176345E+00
              0.151840249452762E+00
             -0.375602936054137E+00
              0.202092859132977E+00
             -0.257481560372153E+00
             -0.193988205706845E+00
             -0.191914655100236E-01
             -0.659842235432635E+00
              0.296480400825683E-02
             -0.673074148405295E-01
             -0.168716358924621E+00
              0.180092049067982E+00
             -0.558687649729927E+00
              0.639715439795074E+00
             -0.227066071666196E+00
             -0.145093192290359E+01
             -0.915706123898228E+00
              0.364027458397678E+00
             -0.467211994517458E+00
             -0.227534850482468E+00
             -0.233472721988243E+00
             -0.211960358625186E+00
             -0.110980297370365E+01
              0.379989602369335E-02
             -0.661539679131573E+00
             -0.379474393604235E+00
              0.194486183980201E+00
              0.862266113209720E+00
              0.548267408677079E-01
              0.238859647918663E-01
              0.646823791272189E+00
             -0.653357232853977E+00
              0.285163257976905E+00
              0.544982246863945E-01
             -0.583970474340855E+00
             -0.354645038676137E+00
              0.199571980345515E+00
              0.413898122668315E-01
              0.189462558463914E+00
              0.137696952507620E+00
             -0.247978167065083E+00
             -0.379789362027038E+00
             -0.541789079843087E+00
              0.538535314613303E+00
             -0.730524397611022E+00
             -0.540386556805027E+00
              0.141954316787829E+00
             -0.888271490368784E+00
              0.267107940515032E+00
              0.658309680480994E+00
             -0.137140582154656E+00
              0.231459432053339E+00
             -0.383249825782610E+00
             -0.243353338398961E+00
              0.117430949373562E+00
              0.381181468794973E+00
             -0.388107644898830E+00
              0.235639189012264E+00
             -0.157096759720642E+00
              0.114706190485197E+00
              0.183143232725558E+00
              0.852043546500276E-01
             -0.157854933224874E+00
             -0.346248458062259E-02
              0.112947691143122E+00
              0.303262803010090E+00
             -0.757863843522801E+00
             -0.224897558309785E-01
              0.554842499268807E+00
             -0.927826574622823E+00
              0.352790781998545E+00
             -0.120044705328971E+01
             -0.133732704894277E+00
             -0.144959113365394E+00
             -0.230704855551291E-01
             -0.147211683950496E+00
             -0.296010195267930E+00
             -0.123947982157277E+00
              0.112929190294786E+00
             -0.287436947281966E+00
              0.113633354722260E+00
              0.979033965305851E+00
             -0.600734431992559E+00
             -0.259769695411868E+00
              0.462896556560139E+00
              0.227639086877054E+00
              0.474508810240706E+00
              0.238295706212210E+00
              0.151120796940869E+00
             -0.159921992057847E+00
             -0.532500054335505E+00
             -0.487921293681366E+00
             -0.399766506508356E+00
              0.737870571602075E-01
             -0.459976603392181E+00
             -0.125983700006335E+00
              0.613156978745721E-01
              0.266441813831181E+00
             -0.679864514100987E-01
              0.640811357400225E+00
             -0.721124603013971E+00
             -0.314318294530302E-02
             -0.765199869042106E-01
              0.336478907679358E+00
             -0.434077488968263E+00
             -0.293552746535666E+00
              0.116637759605210E+00
              0.464173956258445E+00
              0.821547405753693E+00
              0.301952517912596E+00
              0.497266812484603E+00
             -0.260991382092453E+00
              0.674606467112385E+00
              0.676130978710464E+00
              0.378731696382673E-02
              0.309569079722846E+00
              0.394051319981999E+00
             -0.226472113329387E+00
              0.175248508092119E+00
              0.704687682343835E+00
             -0.218462942908527E+00
             -0.486532542824065E-01
             -0.654341088183239E+00
              0.223964485291941E+00
             -0.176353559987323E+00
              0.232717252996101E+00
              0.484559913165228E-02
             -0.415568961705769E+00
              0.481377950527112E+00
              0.415898681349061E+00
             -0.346398244919806E+00
              0.187660524740322E+00
             -0.650535655756117E+00
             -0.582848216062311E+00
              0.263611606842103E+00
             -0.727431606084628E+00
             -0.375063979310128E+00
             -0.136049806225813E-01
              0.916285644533119E+00
             -0.248428634187154E+00
             -0.123288710915474E+00
             -0.233749445756184E+00
              0.118817327120037E+01
              0.183307507467337E+00
             -0.463980350396538E+00
              0.768900331750248E+00
              0.663476979618690E+00
              0.349028377798880E+00
              0.853766986235551E+00
              0.955647798068685E+00
             -0.206912664813532E-01
             -0.300223716268269E+00
             -0.250662469297727E+00
              0.308169703109536E+00
              0.427026377855792E+00
             -0.824772029312300E-01
             -0.257060478171153E+00
             -0.604483580502567E+00
             -0.205351304976668E+00
             -0.501385051932695E+00
              0.369693323725679E+00
              0.198681434908017E+00
              0.652735822158293E+00
              0.159548022936448E+00
             -0.237169640229825E+00
             -0.991313136714975E-01
              0.417658537324677E+00
              0.101053399994038E+00
              0.669638426726827E+00
              0.582409923297956E+00
             -0.768196672461392E-01
             -0.104885290314720E+00
             -0.109876671439099E+01
              0.525052144161070E+00
              0.134011335472692E-01
              0.620475389114350E+00
             -0.286062086294387E+00
             -0.711734255135555E+00
              0.203616025592756E+00
              0.790478256244779E+00
             -0.265436535456147E+00
              0.699975368188385E+00
             -0.763584457765161E+00
             -0.281713539973567E+00
             -0.925197491599795E+00
              0.153680312406169E+00
              0.297263585121854E-01
              0.105242421861794E+00
             -0.668720190285337E+00
              0.101528789304655E+01
              0.586456014356277E+00
              0.600402769280199E-01
             -0.614200509491839E+00
              0.207796586189068E+00
             -0.179663903957148E+00
             -0.169436854694139E+00
             -0.312365413914686E+00
              0.171722041474143E+00
             -0.206400570077090E+00
             -0.193922345241342E+00
              0.253516526243920E+00
              0.249705606703203E+00
             -0.961294229892696E+00
              0.209929887021945E+00
              0.707826213609486E+00
              0.453047377990429E+00
             -0.130780688766076E+00
             -0.370291074760366E-01
             -0.388880977097878E+00
              0.585897976550418E+00
              0.795214296530782E-01
             -0.179538151795806E-01
             -0.736211372816262E-01
              0.115727259306475E+01
             -0.894471673930086E-01
              0.207411880515325E+00
              0.810633777309178E+00
              0.101037618008724E+01
              0.640872277497257E+00
              0.398403077717044E+00
             -0.701787610324341E+00
             -0.499769746315583E+00
              0.394756635727061E+00
              0.816502786773183E-01
              0.333534213387953E+00
              0.123296587331791E+00
              0.696109616770106E+00
             -0.847684634097253E+00
             -0.521105940985159E+00
             -0.123238515351742E+00
             -0.945674920003652E+00
              0.220635876188578E+00
              0.508993981165062E+00
             -0.256841273122799E-01
             -0.214315822323685E+00
              0.208964531936635E+00
              0.142941702858941E+01
              0.353770219879719E+00
              0.187621965899766E+00
             -0.496558086503026E+00
             -0.606740458478080E+00
             -0.136123748942828E+00
              0.311977533364117E+00
             -0.634424331664345E-01
              0.302097348066807E+00
              0.390717515421491E+00
             -0.622337269147037E+00
              0.290325948325950E+00
              0.329045731813933E+00
              0.586586605801054E+00
             -0.108765918749806E+00
              0.771223379989836E-01
             -0.779086997654586E-01
             -0.474439416149969E+00
             -0.778415832481826E+00
              0.803048359626400E+00
             -0.105772898077126E+00
             -0.545616517459526E+00
              0.102120066625998E+00
             -0.331279030557911E+00
              0.902577598693123E+00
             -0.259530966919935E+00
             -0.406408625991435E+00
              0.404482748513763E+00
             -0.169739606087503E+00
              0.498244715894929E+00
              0.469949794340856E-01
              0.965615107610783E+00
              0.573515982207190E+00
              0.156637902201485E+00
             -0.430921947920735E+00
              0.305578836150650E+00
             -0.573619693417448E+00
             -0.443472428355347E-01
              0.687335304555408E+00
             -0.269253771119781E+00
             -0.462792146228275E+00
             -0.257069428129905E+00
              0.540235035115216E+00
              0.119145910642325E+00
             -0.848158268655678E+00
              0.361424278383011E+00
              0.467340908679543E-01
              0.124844792521234E+00
             -0.524334084268999E+00
              0.112970568539162E+00
              0.368796241721920E+00
              0.468248817371178E+00
              0.714519633084300E+00
              0.381544348922166E+00
              0.776438698111308E-01
             -0.605034390746815E+00
             -0.446193817197521E+00
             -0.662549219647607E+00
             -0.177475414614663E+00
              0.368042626252752E+00
              0.635043361920173E-02
              0.551660125714375E+00
             -0.340866686103634E+00
              0.183047412311856E+00
             -0.267930471578455E+00
             -0.292671994365152E+00
              0.633375225823595E+00
              0.598322460028866E-01
              0.673961295248903E+00
              0.456708209171506E-01
              0.194208859276507E+00
             -0.175996371131323E+00
              0.637008571329633E+00
             -0.196788208004302E+00
              0.114173230495350E-01
             -0.827899485969996E+00
             -0.664589836038045E-01
              0.734909975197795E+00
              0.660178584092690E+00
              0.284607535286451E+00
             -0.173590317648056E+00
              0.776294558423709E-01
             -0.266451357867937E+00
             -0.240067027525528E+00
              0.965834849639868E+00
              0.101728912351931E+00
             -0.322491197746887E+00
             -0.111450490397718E+01
             -0.425060371602660E+00
             -0.407962887871241E+00
             -0.628189858691802E+00
             -0.637844172799147E+00
             -0.739881252893019E+00
             -0.482608707904255E+00
             -0.281330490938720E+00
             -0.521899555653230E+00
              0.467234032139102E+00
             -0.162352354442861E+00
             -0.836845810926691E+00
              0.426874976381000E+00
             -0.369196151088397E+00
             -0.846284325758101E+00
              0.106370358990836E+01
             -0.284888830555385E+00
              0.145530434747672E+00
              0.378976513990962E+00
              0.173828909948681E+00
              0.294958992720836E+00
              0.883599289295800E-02
              0.128115097411255E-01
             -0.149089364376349E+00
             -0.792887012830419E+00
              0.108520056262271E+00
             -0.126199519229712E+01
              0.803362447144607E+00
             -0.429580041579264E+00
             -0.209272149233616E+00
             -0.233222104348980E+00
              0.249194197666072E+00
             -0.158173994288357E+00
              0.278728304113101E+00
             -0.624632172398142E+00
              0.372576902179529E+00
              0.475125322528975E+00
              0.691366429540032E-01
              0.111443719801229E+00
              0.229190159454967E+00
              0.112074760888909E+00
              0.295076593048580E+00
             -0.378822044708216E-01
             -0.829602221082780E+00
              0.104444814712535E+00
             -0.379494296589090E+00
             -0.405782081786006E-01
              0.617446081453232E+00
             -0.836474601501146E+00
              0.372394090857009E-01
              0.457718672965179E-01
              0.103683813609531E+00
              0.318597159905898E+00
             -0.135439223603462E+00
              0.897940614319735E+00
              0.366506982871081E+00
             -0.135931406859906E+00
             -0.721767524365013E-01
              0.701977635033608E-01
              0.828742320616005E+00
             -0.512975555192440E+00
             -0.106191940215802E+01
              0.316270446758916E+00
             -0.908359261462222E-01
             -0.176993644573417E+00
              0.213995888289121E+00
              0.788374689322777E+00
              0.433623111007241E+00
             -0.182353518869284E+00
             -0.586943784552262E+00
             -0.144262216894461E+00
              0.284024747011256E+00
             -0.196439227395851E+00
             -0.813750874267964E+00
             -0.113550730003735E+00
             -0.106282041778608E+01
             -0.560858565951997E+00
              0.947849975474804E+00
             -0.573025038811270E+00
             -0.764718230783938E+00
             -0.560641042730530E+00
             -0.432092154184841E+00
              0.377879462010859E+00
              0.911444494439379E+00
             -0.123142284695764E+00
              0.279897721954736E+00
             -0.228641505037546E+00
             -0.732830023415147E+00
              0.549014672765674E+00
             -0.524142225180937E+00
              0.240482512736354E+00
              0.280145526577229E+00
             -0.168696540782369E+00
              0.370230748572709E+00
              0.396605124007155E+00
              0.133249053292858E+01
             -0.920372699242833E-01
             -0.633338633985754E+00
             -0.713416066547832E+00
             -0.222228265707245E+00
             -0.466894347592560E+00
              0.964889218924642E+00
             -0.483180660154472E+00
              0.111714733624401E+00
              0.115884362636121E-01
             -0.197927795984218E+00
             -0.934606093723568E+00
             -0.678260772501291E-01
              0.107458847649061E+01
              0.255083343797880E+00
              0.723674467971045E-01
             -0.657832959306651E+00
             -0.585226207627693E+00
             -0.219454552448918E+00
              0.482865906817122E+00
             -0.290237093909274E+00
              0.106621457782186E+01
             -0.534652293704110E+00
              0.214190894939804E+00
             -0.113671645841284E+00
             -0.655206003035119E+00
              0.780245218071758E-01
             -0.606974198621444E+00
             -0.788377547051443E+00
              0.136408565634811E+00
              0.170726932274468E-01
              0.532561521005555E+00
              0.294298071602633E+00
             -0.385126092591766E+00
              0.219149948761239E+00
             -0.975686893990431E+00
             -0.494942977335119E+00
              0.987609660190073E+00
              0.157937436088224E-01
             -0.438092122400802E-01
             -0.246893876088604E+00
             -0.147701235737028E-01
             -0.148269986100223E+00
              0.100653255238690E+01
              0.445347381091167E+00
             -0.763872262812271E-01
              0.285470769454621E-01
             -0.390372016681330E+00
             -0.109668678235653E+00
             -0.649462544076828E+00
              0.561032091627718E+00
              0.783404101678862E-01
              0.758100766209866E-01
              0.216667033985025E+00
             -0.167819422544962E+00
             -0.252786038386793E+00
              0.130644735170608E+00
             -0.121641849433380E+01
             -0.996385176099190E-01
             -0.120155686450001E+00
             -0.620245494011249E-01
              0.490981725260841E+00
              0.707471044357334E+00
              0.200116083090499E+00
             -0.995285488689598E+00
              0.676806101506547E+00
             -0.250777559905796E+00
             -0.394825148336752E+00
             -0.930904259097223E+00
             -0.260051261360368E+00
              0.704722586698544E+00
              0.372141917808941E+00
              0.171887176238651E+00
              0.381528258033852E+00
             -0.608777504133877E+00
             -0.532175872930128E+00
              0.679481914848058E+00
              0.439049485136556E+00
              0.491979108870832E+00
              0.128326798744566E+00
              0.116353445133843E+00
              0.564714041143379E+00
              0.104610664823033E+01
             -0.166381203734344E+00
              0.446902695007825E+00
             -0.366137874284201E+00
             -0.466657686869378E+00
             -0.383482621940050E+00
             -0.382317869055945E+00
             -0.157355090980498E+00
             -0.495551627935281E+00
             -0.191695065219201E+00
             -0.137488662081128E+01
              0.334931377669711E+00
              0.301966245808803E+00
             -0.435361859882500E-01
             -0.393864641516718E+00
             -0.178276060111060E+00
             -0.617573691881348E+00
              0.474528158951522E-01
              0.844746073263974E+00
             -0.202437173022478E+00
             -0.205655678740503E+00
              0.202821996804246E+00
             -0.557958138532176E+00
              0.899089838044600E+00
              0.154562441047560E+00
              0.516620918224939E-01
              0.551461474458495E+00
             -0.832696778406889E-01
              0.632868739567995E+00
              0.231590610686531E+00
              0.191230852876512E-02
              0.144732367904323E+00
             -0.124298269036016E+00
              0.697473927809399E+00
              0.719438909818964E-01
              0.244433969898264E+00
             -0.974310752662193E-01
              0.116696220696294E+00
             -0.100441175592313E+01
             -0.370186467131820E+00
             -0.547164331302994E+00
              0.519830948281134E+00
             -0.389063247175498E+00
             -0.577324247023792E+00
              0.643927999670685E+00
             -0.138077415153151E+00
              0.433456505477088E+00
             -0.938513929928296E+00
              0.170479410728831E+00
              0.287678060843184E-01
              0.875218786955303E-01
             -0.160108076808910E+00
             -0.625819697608136E-01
              0.538351179454379E+00
              0.171421441948123E-01
             -0.582922630336339E+00
             -0.238601633239798E+00
              0.174602664397852E+00
             -0.122381455543949E+01
             -0.910889735406802E+00
              0.199565604793150E-02
              0.181919699533750E+00
             -0.571040352331651E+00
              0.243964828268908E-01
              0.108623375883059E+01
              0.282232843151117E+00
             -0.576877956568000E+00
              0.805664900674148E-01
             -0.108968367921467E+00
              0.148256303625930E+00
             -0.399874442744842E+00
              0.262807066363975E+00
              0.249343727704675E+00
             -0.100070938646432E+00
              0.121838614510941E+01
             -0.292423899207670E-01
             -0.321371603338831E+00
              0.342161477477784E+00
              0.447803953688774E+00
             -0.330499324094076E+00
             -0.595573709438074E-02
              0.105975473975749E+01
             -0.242620268955562E-02
              0.561297111231819E+00
              0.173568002267532E+00
             -0.628002840025829E-01
             -0.157632280125234E+00
              0.496357811125677E+00
             -0.633696217903708E+00
             -0.107397016694235E-01
             -0.215555451741096E+00
             -0.421139478185656E+00
              0.119473891354802E+00
              0.287595122704286E+00
             -0.343574707523375E-01
             -0.152001380048414E-01
             -0.453938170347978E+00
              0.139226558678827E+00
             -0.104130524861619E-01
             -0.228488805990730E+00
             -0.205599531385016E+00
              0.156729267525318E+00
              0.644046227224937E-02
             -0.423031209385684E+00
             -0.115344789083608E+01
              0.827955108760792E-01
              0.139677479141497E+00
             -0.551458834999210E+00
             -0.287894464628073E+00
              0.888261025442079E+00
              0.156239110056076E+00
              0.491371789145545E+00
              0.129603050368789E+00
              0.447964062175847E+00
              0.232761887584285E-01
             -0.426983738927057E+00
             -0.164857070987001E+00
              0.492272588757889E-01
              0.346378805035525E+00
              0.772036614746397E+00
              0.524901373602039E+00
              0.379016309336828E-01
              0.137156968313712E+00
              0.654980715560389E+00
              0.308688709319837E+00
             -0.721339219256716E+00
             -0.291783600917034E+00
              0.971970487844311E-01
              0.117107440973381E+00
              0.267259578773232E+00
             -0.533665264912825E+00
              0.431366290047328E-01
              0.462573694720211E+00
              0.511876129739878E+00
             -0.452607011604945E+00
              0.506612457989757E-01
             -0.246859754047102E-01
             -0.223823029867917E+00
             -0.246289961550887E+00
             -0.108230285125384E+00
             -0.166828777565649E+00
              0.126190300553265E+00
              0.449708024928547E+00
             -0.345393529116924E+00
              0.868290670236622E+00
              0.347733546464319E+00
              0.296085147444396E+00
              0.410691042671879E+00
              0.241240786455142E+00
              0.401308903483054E+00
              0.595302206580470E+00
             -0.506598281543777E+00
              0.674743765211776E+00
             -0.122718319710045E+01
              0.335703494972532E+00
             -0.112503358149366E+01
              0.861997767218062E+00
              0.844426842628489E+00
             -0.867254091713430E-01
             -0.492936085768758E+00
             -0.469626204534855E+00
             -0.549687059028075E+00
             -0.710371397872696E+00
              0.594030790498649E+00
              0.462686276324034E+00
              0.260131236780943E+00
              0.243954698337981E+00
              0.505406402728899E+00
             -0.444526203927816E+00
             -0.157919102419760E+00
              0.570303171073864E+00
             -0.138644095572635E+00
              0.541250585721160E+00
              0.846594190472496E+00
             -0.533249765103483E-01
             -0.819991443879935E+00
              0.879792855669770E-01
              0.557786796962277E-02
             -0.111894713564307E+00
              0.300036314580487E-01
             -0.693777397871677E+00
             -0.615142370663539E-01
              0.154866172473351E+00
              0.172339234323153E+00
              0.545193347373799E+00
             -0.462006706479308E+00
              0.512753747832717E+00
             -0.406104092851991E+00
              0.308112446169770E+00
              0.477987997052892E+00
 
 BEEF-vdW xc energy contributions
           1 :   -7.30395621312364     
           2 :    5.86873807742039     
           3 :   -3.83189704289180     
           4 :    1.96624483118168     
           5 :  -0.644137685562562     
           6 :  -6.830509959125841E-002
           7 :   0.281972154117716     
           8 :  -0.213882127119055     
           9 :   8.823309475648422E-002
          10 :  -4.865572721291223E-002
          11 :   0.113815587030535     
          12 :  -0.212225980966911     
          13 :   0.255416013762106     
          14 :  -0.208428919723174     
          15 :   0.103634804432780     
          16 :  -8.309364057895507E-003
          17 :  -2.672753506968384E-002
          18 :  -4.846274589846544E-003
          19 :   6.442169240486528E-002
          20 :  -9.831862516426426E-002
          21 :   7.146533389503240E-002
          22 :   8.530132021707715E-003
          23 :  -0.100426627892482     
          24 :   0.167059533232380     
          25 :  -0.195168006311526     
          26 :   0.176892019589817     
          27 :  -0.114204419306335     
          28 :   3.597402611804057E-002
          29 :   1.827159048496085E-002
          30 :  -3.365237709606284E-002
          31 :   -1.00079611182549     
          32 :  -0.599187750273801     

     Writing output data file ./pwscf.save/
 
     init_run     :     60.49s CPU     62.49s WALL (       1 calls)
     electrons    :    579.56s CPU    611.86s WALL (       1 calls)
     forces       :     23.74s CPU     25.43s WALL (       1 calls)

     Called by init_run:
     wfcinit      :      0.87s CPU      0.91s WALL (       1 calls)
     potinit      :     54.04s CPU     55.58s WALL (       1 calls)
     hinit0       :      4.33s CPU      4.43s WALL (       1 calls)

     Called by electrons:
     c_bands      :     46.36s CPU     46.42s WALL (      20 calls)
     sum_band     :     34.69s CPU     38.96s WALL (      20 calls)
     v_of_rho     :    410.10s CPU    433.55s WALL (      21 calls)
     newd         :     14.58s CPU     18.92s WALL (      21 calls)
     PAW_pot      :      1.86s CPU      1.86s WALL (      21 calls)
     mix_rho      :    122.75s CPU    124.62s WALL (      20 calls)
     vdW_kernel   :     33.93s CPU     33.93s WALL (       1 calls)

     Called by c_bands:
     init_us_2    :      1.00s CPU      1.01s WALL (      41 calls)
     regterg      :     44.26s CPU     44.31s WALL (      20 calls)

     Called by *egterg:
     rdiaghg      :      0.01s CPU      0.02s WALL (      88 calls)
     h_psi        :     41.01s CPU     41.01s WALL (      89 calls)
     s_psi        :      0.56s CPU      0.56s WALL (      89 calls)
     g_psi        :      0.14s CPU      0.14s WALL (      68 calls)

     Called by h_psi:
     h_psi:calbec :      0.54s CPU      0.54s WALL (      89 calls)
     vloc_psi     :     39.66s CPU     39.66s WALL (      89 calls)
     add_vuspsi   :      0.57s CPU      0.57s WALL (      89 calls)

     General routines
     calbec       :      0.71s CPU      0.71s WALL (     113 calls)
     fft          :    233.02s CPU    233.04s WALL (    3168 calls)
     ffts         :     49.88s CPU     49.88s WALL (     685 calls)
     fftw         :     38.04s CPU     38.04s WALL (     520 calls)
 
     Parallel routines
 
     PWSCF        :  20m37.03s CPU  21m59.04s WALL

 
   This run was terminated on:  16:33:11  20Dec2022            

=------------------------------------------------------------------------------=
   JOB DONE.
=------------------------------------------------------------------------------=
