
     Program PWSCF v.6.7MaX starts on  3Jan2023 at 22:51:40 

     This program is part of the open-source Quantum ESPRESSO suite
     for quantum simulation of materials; please cite
         "P. Giannozzi et al., J. Phys.:Condens. Matter 21 395502 (2009);
         "P. Giannozzi et al., J. Phys.:Condens. Matter 29 465901 (2017);
          URL http://www.quantum-espresso.org", 
     in publications or presentations arising from this work. More details at
     http://www.quantum-espresso.org/quote

     Parallel version (MPI), running on     1 processors

     MPI processes distributed on     1 nodes
     Reading input from ccch3-gas-ensemble.in
Warning: card &CELL ignored
Warning: card / ignored

     Current dimensions of program PWSCF are:
     Max number of different atomic species (ntypx) = 10
     Max number of k-points (npk) =  40000
     Max angular momentum in pseudopotentials (lmaxx) =  3
     file C.pbe-n-kjpaw_psl.1.0.0.UPF: wavefunction(s)  2S 2P renormalized
     file H.pbe-kjpaw_psl.1.0.0.UPF: wavefunction(s)  1S renormalized

     **************************************************************************
     Initializing libbeef V0.1.2 with the BEEF-vdW functional.
     Citation: Wellendorff et al., PRB 85, 235149 (2012).
     **************************************************************************


     IMPORTANT: XC functional enforced from input :
     Exchange-correlation= BEEF-VDW
                           (   1   4  43  14   2   0   0)
     Any further DFT definition will be discarded
     Please, verify this is what you really want


     gamma-point specific algorithms are used

     Subspace diagonalization in iterative solution of the eigenvalue problem:
     a serial algorithm will be used

 
     G-vector sticks info
     --------------------
     sticks:   dense  smooth     PW     G-vecs:    dense   smooth      PW
     Sum       32953   32953   8235              4728983  4728983  591181
 


     bravais-lattice index     =            0
     lattice parameter (alat)  =      41.1478  a.u.
     unit-cell volume          =   75315.4960 (a.u.)^3
     number of atoms/cell      =            6
     number of atomic types    =            2
     number of electrons       =        15.00
     number of Kohn-Sham states=           12
     kinetic-energy cutoff     =      60.0000  Ry
     charge density cutoff     =     240.0000  Ry
     scf convergence threshold =      1.0E-06
     mixing beta               =       0.7000
     number of iterations used =            8  local-TF  mixing
     Exchange-correlation= BEEF-VDW
                           (   1   4  43  14   2   0   0)

     celldm(1)=  41.147771  celldm(2)=   0.000000  celldm(3)=   0.000000
     celldm(4)=   0.000000  celldm(5)=   0.000000  celldm(6)=   0.000000

     crystal axes: (cart. coord. in units of alat)
               a(1) = (   1.000000   0.000000   0.000000 )  
               a(2) = (   0.000000   1.018981   0.000000 )  
               a(3) = (   0.000000   0.000000   1.060912 )  

     reciprocal axes: (cart. coord. in units 2 pi/alat)
               b(1) = (  1.000000  0.000000  0.000000 )  
               b(2) = (  0.000000  0.981372  0.000000 )  
               b(3) = (  0.000000  0.000000  0.942586 )  


     PseudoPot. # 1 for C  read from file:
     /users/bkreitz1/quantum-espresso/potentials/C.pbe-n-kjpaw_psl.1.0.0.UPF
     MD5 check sum: a169b0ebad56f5ec0d79c4633f80bf22
     Pseudo is Projector augmented-wave + core cor, Zval =  4.0
     Generated using 'atomic' code by A. Dal Corso  v.6.7MaX
     Shape of augmentation charge: PSQ
     Using radial grid of 1073 points,  4 beta functions with: 
                l(1) =   0
                l(2) =   0
                l(3) =   1
                l(4) =   1
     Q(r) pseudized with 0 coefficients 


     PseudoPot. # 2 for H  read from file:
     /users/bkreitz1/quantum-espresso/potentials/H.pbe-kjpaw_psl.1.0.0.UPF
     MD5 check sum: ae98473e6dc62675f0d0baffdab24f65
     Pseudo is Projector augmented-wave, Zval =  1.0
     Generated using 'atomic' code by A. Dal Corso  v.6.7MaX
     Shape of augmentation charge: PSQ
     Using radial grid of  929 points,  2 beta functions with: 
                l(1) =   0
                l(2) =   0
     Q(r) pseudized with 0 coefficients 


     atomic species   valence    mass     pseudopotential
        C              4.00    12.01100     C ( 1.00)
        H              1.00     1.00800     H ( 1.00)

     No symmetry found



   Cartesian axes

     site n.     atom                  positions (alat units)
         1           C   tau(   1) = (   0.5028456   0.4585041   0.4600974  )
         2           C   tau(   2) = (   0.4971221   0.4965507   0.5042864  )
         3           C   tau(   3) = (   0.4997756   0.5302358   0.5613325  )
         4           H   tau(   4) = (   0.5003492   0.4992759   0.6009664  )
         5           H   tau(   5) = (   0.5409389   0.5590506   0.5636740  )
         6           H   tau(   6) = (   0.4597330   0.5603794   0.5665011  )

     number of k points=     1  Gaussian smearing, width (Ry)=  0.0050
                       cart. coord. in units 2pi/alat
        k(    1) = (   0.0000000   0.0000000   0.0000000), wk =   2.0000000

     Dense  grid:  2364492 G-vectors     FFT dimensions: ( 216, 216, 216)

     Estimated max dynamical RAM per process >       3.67 GB

     Initial potential from superposition of free atoms

     starting charge   14.99985, renormalised to   15.00000

     negative rho (up, down):  9.015E-03 0.000E+00


     %%%%%%%%%%%%%%%%%%%%%%%%%%%%%%%%%%%%%%%%%%%%%%%%%%%%%%%%%%%%%%%%%%%%%%%%
     %                                                                      %
     % You are using vdW-DF, which was implemented by the Thonhauser group. %
     % Please cite the following two papers that made this development      %
     % possible and the two reviews that describe the various versions:     %
     %                                                                      %
     %   T. Thonhauser et al., PRL 115, 136402 (2015).                      %
     %   T. Thonhauser et al., PRB 76, 125112 (2007).                       %
     %   K. Berland et al., Rep. Prog. Phys. 78, 066501 (2015).             %
     %   D.C. Langreth et al., J. Phys.: Condens. Matter 21, 084203 (2009). %
     %                                                                      %
     %                                                                      %
     % If you are calculating the stress with vdW-DF, please also cite:     %
     %                                                                      %
     %   R. Sabatini et al., J. Phys.: Condens. Matter 24, 424209 (2012).   %
     %                                                                      %
     %%%%%%%%%%%%%%%%%%%%%%%%%%%%%%%%%%%%%%%%%%%%%%%%%%%%%%%%%%%%%%%%%%%%%%%%


     Starting wfcs are   15 randomized atomic wfcs
     Checking if some PAW data can be deallocated... 

     total cpu time spent up to now is       70.1 secs

     Self-consistent Calculation

     iteration #  1     ecut=    60.00 Ry     beta= 0.70
     Davidson diagonalization with overlap
     ethr =  1.00E-02,  avg # of iterations =  4.0

     negative rho (up, down):  7.750E-03 0.000E+00

     total cpu time spent up to now is      107.8 secs

     total energy              =     -60.28247149 Ry
     estimated scf accuracy    <       0.66481083 Ry

     iteration #  2     ecut=    60.00 Ry     beta= 0.70
     Davidson diagonalization with overlap
     ethr =  4.43E-03,  avg # of iterations =  2.0

     negative rho (up, down):  9.221E-03 0.000E+00

     total cpu time spent up to now is      144.1 secs

     total energy              =     -60.23202956 Ry
     estimated scf accuracy    <       0.20761533 Ry

     iteration #  3     ecut=    60.00 Ry     beta= 0.70
     Davidson diagonalization with overlap
     ethr =  1.38E-03,  avg # of iterations =  6.0

     negative rho (up, down):  5.860E-03 0.000E+00

     total cpu time spent up to now is      181.7 secs

     total energy              =     -60.23086237 Ry
     estimated scf accuracy    <       0.22205620 Ry

     iteration #  4     ecut=    60.00 Ry     beta= 0.70
     Davidson diagonalization with overlap
     ethr =  1.38E-03,  avg # of iterations =  1.0

     negative rho (up, down):  7.824E-03 0.000E+00

     total cpu time spent up to now is      218.0 secs

     total energy              =     -60.24511234 Ry
     estimated scf accuracy    <       0.06040914 Ry

     iteration #  5     ecut=    60.00 Ry     beta= 0.70
     Davidson diagonalization with overlap
     ethr =  4.03E-04,  avg # of iterations =  1.0

     negative rho (up, down):  1.569E-02 0.000E+00

     total cpu time spent up to now is      254.5 secs

     total energy              =     -60.24116196 Ry
     estimated scf accuracy    <       0.02057714 Ry

     iteration #  6     ecut=    60.00 Ry     beta= 0.70
     Davidson diagonalization with overlap
     ethr =  1.37E-04,  avg # of iterations = 11.0

     negative rho (up, down):  3.203E-02 0.000E+00

     total cpu time spent up to now is      294.8 secs

     total energy              =     -60.24045184 Ry
     estimated scf accuracy    <       0.01519364 Ry

     iteration #  7     ecut=    60.00 Ry     beta= 0.70
     Davidson diagonalization with overlap
     ethr =  1.01E-04,  avg # of iterations =  2.0

     negative rho (up, down):  4.874E-02 0.000E+00

     total cpu time spent up to now is      332.9 secs

     total energy              =     -60.24047522 Ry
     estimated scf accuracy    <       0.00496554 Ry

     iteration #  8     ecut=    60.00 Ry     beta= 0.70
     Davidson diagonalization with overlap
     ethr =  3.31E-05,  avg # of iterations =  7.0

     negative rho (up, down):  7.994E-02 0.000E+00

     total cpu time spent up to now is      373.6 secs

     total energy              =     -60.24093054 Ry
     estimated scf accuracy    <       0.00418950 Ry

     iteration #  9     ecut=    60.00 Ry     beta= 0.70
     Davidson diagonalization with overlap
     ethr =  2.79E-05,  avg # of iterations =  9.0

     negative rho (up, down):  9.331E-02 0.000E+00

     total cpu time spent up to now is      413.9 secs

     total energy              =     -60.24131885 Ry
     estimated scf accuracy    <       0.00160897 Ry

     iteration # 10     ecut=    60.00 Ry     beta= 0.70
     Davidson diagonalization with overlap
     ethr =  1.07E-05,  avg # of iterations =  8.0

     negative rho (up, down):  8.670E-02 0.000E+00

     total cpu time spent up to now is      454.3 secs

     total energy              =     -60.24102611 Ry
     estimated scf accuracy    <       0.00092125 Ry

     iteration # 11     ecut=    60.00 Ry     beta= 0.70
     Davidson diagonalization with overlap
     ethr =  6.14E-06,  avg # of iterations = 11.0

     negative rho (up, down):  8.088E-02 0.000E+00

     total cpu time spent up to now is      494.9 secs

     total energy              =     -60.24079535 Ry
     estimated scf accuracy    <       0.00049209 Ry

     iteration # 12     ecut=    60.00 Ry     beta= 0.70
     Davidson diagonalization with overlap
     ethr =  3.28E-06,  avg # of iterations = 19.0

     negative rho (up, down):  6.752E-02 0.000E+00

     total cpu time spent up to now is      538.4 secs

     total energy              =     -60.24045501 Ry
     estimated scf accuracy    <       0.00032141 Ry

     iteration # 13     ecut=    60.00 Ry     beta= 0.70
     Davidson diagonalization with overlap
     ethr =  2.14E-06,  avg # of iterations = 17.0

     negative rho (up, down):  5.873E-02 0.000E+00

     total cpu time spent up to now is      581.2 secs

     total energy              =     -60.24029584 Ry
     estimated scf accuracy    <       0.00049387 Ry

     iteration # 14     ecut=    60.00 Ry     beta= 0.70
     Davidson diagonalization with overlap
     ethr =  2.14E-06,  avg # of iterations =  2.0

     negative rho (up, down):  3.727E-02 0.000E+00

     total cpu time spent up to now is      618.4 secs

     total energy              =     -60.24014650 Ry
     estimated scf accuracy    <       0.00010789 Ry

     iteration # 15     ecut=    60.00 Ry     beta= 0.70
     Davidson diagonalization with overlap
     ethr =  7.19E-07,  avg # of iterations = 18.0

     negative rho (up, down):  2.888E-02 0.000E+00

     total cpu time spent up to now is      661.7 secs

     total energy              =     -60.24015632 Ry
     estimated scf accuracy    <       0.00003651 Ry

     iteration # 16     ecut=    60.00 Ry     beta= 0.70
     Davidson diagonalization with overlap
     ethr =  2.43E-07,  avg # of iterations =  2.0

     negative rho (up, down):  2.327E-02 0.000E+00

     total cpu time spent up to now is      698.4 secs

     total energy              =     -60.24017418 Ry
     estimated scf accuracy    <       0.00001774 Ry

     iteration # 17     ecut=    60.00 Ry     beta= 0.70
     Davidson diagonalization with overlap
     ethr =  1.18E-07,  avg # of iterations =  8.0

     negative rho (up, down):  2.038E-02 0.000E+00

     total cpu time spent up to now is      736.2 secs

     total energy              =     -60.24017925 Ry
     estimated scf accuracy    <       0.00000937 Ry

     iteration # 18     ecut=    60.00 Ry     beta= 0.70
     Davidson diagonalization with overlap
     ethr =  6.25E-08,  avg # of iterations =  2.0

     negative rho (up, down):  1.769E-02 0.000E+00

     total cpu time spent up to now is      772.2 secs

     total energy              =     -60.24018820 Ry
     estimated scf accuracy    <       0.00000642 Ry

     iteration # 19     ecut=    60.00 Ry     beta= 0.70
     Davidson diagonalization with overlap
     ethr =  4.28E-08,  avg # of iterations =  5.0

     negative rho (up, down):  1.737E-02 0.000E+00

     total cpu time spent up to now is      809.1 secs

     total energy              =     -60.24018897 Ry
     estimated scf accuracy    <       0.00000307 Ry

     iteration # 20     ecut=    60.00 Ry     beta= 0.70
     Davidson diagonalization with overlap
     ethr =  2.05E-08,  avg # of iterations =  1.0

     negative rho (up, down):  1.676E-02 0.000E+00

     total cpu time spent up to now is      845.1 secs

     total energy              =     -60.24019033 Ry
     estimated scf accuracy    <       0.00000170 Ry

     iteration # 21     ecut=    60.00 Ry     beta= 0.70
     Davidson diagonalization with overlap
     ethr =  1.13E-08,  avg # of iterations =  1.0

     negative rho (up, down):  1.558E-02 0.000E+00

     total cpu time spent up to now is      872.4 secs

     End of self-consistent calculation

          k = 0.0000 0.0000 0.0000 (295591 PWs)   bands (ev):

   -20.5617 -18.1670 -12.8242 -11.6734 -11.6453  -7.1707  -7.0836  -7.0656
    -1.3606  -0.7795  -0.7250  -0.3683

     the Fermi energy is    -7.0413 ev

!    total energy              =     -60.24019370 Ry

     total all-electron energy =      -233.532472 Ry
     estimated scf accuracy    <       0.00000052 Ry
     smearing contrib. (-TS)   =      -0.00447547 Ry
     internal energy E=F+TS    =     -60.23571823 Ry

     The total energy is F=E-TS. E is the sum of the following terms:
     one-electron contribution =    -131.11177700 Ry
     hartree contribution      =      67.26829344 Ry
     xc contribution           =     -16.27047500 Ry
     ewald contribution        =      39.54583192 Ry
     one-center paw contrib.   =     -19.66759159 Ry

     convergence has been achieved in  21 iterations

     negative rho (up, down):  1.558E-02 0.000E+00

     Forces acting on atoms (cartesian axes, Ry/au):

     atom    1 type  1   force =     0.00180908   -0.00003198   -0.00066886
     atom    2 type  1   force =    -0.00278572    0.00145123   -0.00214062
     atom    3 type  1   force =    -0.00011684    0.00128926    0.00440925
     atom    4 type  2   force =     0.00048176   -0.00104557    0.00022670
     atom    5 type  2   force =     0.00040997   -0.00042074   -0.00014965
     atom    6 type  2   force =     0.00020175   -0.00124220   -0.00167682

     Total force =     0.006740     Total SCF correction =     0.000250

     negative rho (up, down):  1.558E-02 0.000E+00

     negative rho (up, down):  1.558E-02 0.000E+00

     negative rho (up, down):  1.558E-02 0.000E+00

     negative rho (up, down):  1.558E-02 0.000E+00

     negative rho (up, down):  1.558E-02 0.000E+00

     negative rho (up, down):  1.558E-02 0.000E+00

     negative rho (up, down):  1.558E-02 0.000E+00

     negative rho (up, down):  1.558E-02 0.000E+00

     negative rho (up, down):  1.558E-02 0.000E+00

     negative rho (up, down):  1.558E-02 0.000E+00

     negative rho (up, down):  1.558E-02 0.000E+00

     negative rho (up, down):  1.558E-02 0.000E+00

     negative rho (up, down):  1.558E-02 0.000E+00

     negative rho (up, down):  1.558E-02 0.000E+00

     negative rho (up, down):  1.558E-02 0.000E+00

     negative rho (up, down):  1.558E-02 0.000E+00

     negative rho (up, down):  1.558E-02 0.000E+00

     negative rho (up, down):  1.558E-02 0.000E+00

     negative rho (up, down):  1.558E-02 0.000E+00

     negative rho (up, down):  1.558E-02 0.000E+00

     negative rho (up, down):  1.558E-02 0.000E+00

     negative rho (up, down):  1.558E-02 0.000E+00

     negative rho (up, down):  1.558E-02 0.000E+00

     negative rho (up, down):  1.558E-02 0.000E+00

     negative rho (up, down):  1.558E-02 0.000E+00

     negative rho (up, down):  1.558E-02 0.000E+00

     negative rho (up, down):  1.558E-02 0.000E+00

     negative rho (up, down):  1.558E-02 0.000E+00

     negative rho (up, down):  1.558E-02 0.000E+00

     negative rho (up, down):  1.558E-02 0.000E+00

     negative rho (up, down):  1.558E-02 0.000E+00

     negative rho (up, down):  1.558E-02 0.000E+00

     negative rho (up, down):  1.558E-02 0.000E+00

     negative rho (up, down):  1.558E-02 0.000E+00
 BEEFens 2000 ensemble energies
             -0.124774672412687E+01
             -0.402455097540195E-01
             -0.237549864313447E+00
              0.842376505052902E+00
             -0.396986618276880E+00
             -0.280204193707062E+00
             -0.931736381830644E+00
             -0.187224139971352E+01
             -0.606194192390092E+00
             -0.665895407072869E+00
             -0.696890517855153E+00
              0.133890895009374E+00
              0.703252551637070E-01
             -0.132531653167887E+00
              0.731929587361311E-01
              0.902611185271695E+00
             -0.358729454902731E+00
             -0.137205385967027E+00
              0.483319356152597E+00
             -0.210050082848060E+01
              0.108097279163772E+01
             -0.344132653154059E+00
             -0.119196557791180E+00
             -0.158175335848613E+00
              0.839994298876707E-01
             -0.784611820167895E-01
              0.167055469521906E+01
             -0.485478370393129E+00
             -0.132189886065531E+00
             -0.109215611525922E+01
              0.125501509574155E+01
             -0.240486469128913E-01
             -0.797436772583673E+00
              0.311932875970959E+00
             -0.539937920928137E-01
              0.598573951282557E+00
              0.526557886815482E-01
             -0.407442314373716E-01
              0.774331822468257E+00
             -0.186863627162817E+01
              0.104489605234719E+01
              0.230611208719292E+00
             -0.276447192179985E+00
             -0.538882645207015E+00
              0.236061606321205E+00
             -0.358272536634601E+00
              0.992746231672879E+00
              0.662740944536308E+00
             -0.321788991426033E+00
             -0.620106406917508E+00
             -0.598804153840092E+00
             -0.723369413173105E+00
              0.471138995251090E+00
             -0.996228909963612E+00
              0.321515924709347E+00
              0.116551415421691E+01
              0.147543454264975E+01
              0.596553903177457E+00
              0.302366735412954E+00
              0.642470109472145E+00
              0.174961495185499E+01
              0.281580755312170E+00
             -0.104302112980691E+01
             -0.160268667156190E+00
             -0.577513160366934E+00
              0.117938187735278E+01
             -0.133144450943975E+01
             -0.111632801803874E+01
             -0.681796132251113E+00
             -0.420351033036646E+00
             -0.701298890897592E+00
              0.529805937504343E+00
              0.267291207555477E+00
              0.320680742765672E+00
             -0.739415969204564E+00
             -0.675164418336613E+00
             -0.114297552056366E+01
              0.567630974836252E+00
             -0.673138936709126E+00
              0.639463964296150E+00
             -0.176280433025482E+00
             -0.521468809784720E+00
             -0.914884310996604E+00
             -0.279601067264554E+00
             -0.336938944006643E+00
             -0.263471166841646E+00
              0.735755107809402E+00
              0.153160159611546E+01
             -0.887751950687341E+00
             -0.150148465268347E+01
             -0.342032717495366E+00
              0.205257162622309E+01
             -0.107003363639740E+01
              0.578608651663022E+00
             -0.230859469247019E+00
             -0.109457368956134E+01
              0.519492349419441E+00
              0.542574807105331E+00
             -0.285600501554122E+00
              0.522104763037692E+00
             -0.458207540878643E+00
             -0.120958747100879E+01
              0.196637778028413E+01
              0.863361285320138E+00
              0.357090377543177E+00
              0.237857112843522E+00
              0.472812614608008E+00
              0.153458194740642E+01
             -0.508848094279833E+00
              0.430786690001879E-01
             -0.261397189154857E+01
              0.315410549572043E+00
             -0.124631901147001E+01
              0.232021394101290E+00
              0.412721811564547E+00
             -0.723218699331166E+00
             -0.933260051158816E+00
              0.317732014859491E-01
             -0.598725259883889E+00
              0.879950810355357E+00
             -0.850639997452802E+00
             -0.194751797433378E+00
             -0.735636678252796E+00
             -0.583721746865233E-01
              0.121714249192682E+00
              0.475603441503804E+00
             -0.616753304275974E-02
             -0.105891024818880E+00
              0.130197267895292E+01
              0.175549588536497E+01
              0.955799426553313E+00
              0.117422146265300E+01
             -0.247594043429226E+00
              0.136406024362757E+00
              0.961367418456502E+00
              0.155275400943593E+00
             -0.145342761133958E+01
             -0.865963099137048E+00
             -0.927367536445761E+00
             -0.560354391618326E+00
              0.480718213701339E+00
             -0.233107738587636E+01
             -0.225741086753266E+00
              0.900223006142614E+00
             -0.769733661187693E+00
             -0.533529697999704E+00
              0.114203594765276E+01
              0.945650208557946E+00
             -0.526666192793271E+00
              0.701504650656374E+00
             -0.480145748346863E+00
              0.720502509672232E+00
              0.120224973416793E+00
              0.163338991701208E+00
             -0.153881855729340E+01
             -0.899689446902435E+00
             -0.160593361631935E+00
             -0.878194802315113E-01
             -0.823894484195010E+00
              0.214463738217472E+01
             -0.182511381121076E+00
             -0.486700875074527E+00
              0.726828581927471E+00
             -0.829230976855435E+00
             -0.738850984355536E+00
              0.633929909366222E+00
              0.246394840221688E+00
              0.200713304051789E+00
              0.340127323234418E+00
             -0.200550187117337E+00
              0.152826530991438E+00
              0.110100235068314E+01
             -0.486699982502205E+00
              0.436557230783902E+00
              0.168268515290985E+01
              0.604071411891106E+00
             -0.638869728386133E-01
             -0.409236598012280E+00
              0.296556616980876E+01
             -0.508738532315785E+00
              0.763225350269130E+00
              0.621754382441866E+00
              0.487776129779159E+00
              0.176550022963071E+01
              0.860461126292852E+00
             -0.972671186054014E-01
              0.496332006397980E+00
              0.101040145235609E+01
              0.723564104372931E+00
             -0.118273500496366E+01
              0.180550871623348E+01
             -0.163658991227576E+01
             -0.167275177864427E+00
              0.105551536533441E+01
              0.378336275039462E+00
              0.114086472400974E+00
              0.486989538438274E+00
              0.272884998842841E+00
              0.605959385896399E+00
             -0.118708283236090E+01
              0.644670256834043E-01
             -0.434868354694190E+00
             -0.928215503875016E-01
             -0.721320644246237E-01
             -0.273085095465094E+00
             -0.127384975561742E+00
              0.157293401061130E+01
             -0.826376814897523E-01
             -0.536808082581347E+00
             -0.121290662198827E-01
              0.279341371686352E+00
             -0.123994417420233E+01
             -0.111926140246906E+01
             -0.635171955609590E+00
             -0.120214086697540E+01
             -0.368513123446864E+00
             -0.760461209379962E+00
              0.334467629286826E+00
              0.591208789672786E-01
             -0.252854669160376E+00
             -0.146674826636896E+00
              0.857685137889943E-01
             -0.206584061162422E+00
              0.124360330730431E+01
             -0.169981218230622E+01
             -0.253070347828988E+00
             -0.239765641692393E+00
              0.281655469671676E+00
              0.445737795210464E+00
             -0.990215234804577E+00
             -0.209528278879097E+00
              0.853239779633322E+00
             -0.347301372944432E+00
              0.254904328278379E+00
              0.617650115805326E+00
             -0.139440474328554E-01
              0.218376267396320E+01
             -0.160994755207833E+00
             -0.648954247044447E+00
             -0.214526337801724E-01
             -0.555095338232764E+00
              0.104125069354539E+01
             -0.974296946928131E+00
              0.288385794974252E+00
              0.892499285847817E+00
             -0.234741460427050E+00
              0.224127069613152E+01
              0.242575295883759E+01
             -0.135720532556527E+01
              0.109991831757377E+01
              0.485981870616255E+00
             -0.108767285039042E+01
              0.313887823497469E+00
              0.859181458596614E+00
              0.924678773202979E+00
              0.852309140052858E-01
              0.379138119475856E+00
              0.145088503177901E+01
             -0.443341497250211E+00
              0.165282780618826E+00
              0.124908146419231E+01
             -0.677373411409442E+00
             -0.502387636336069E+00
              0.116564159113135E+01
              0.591839534367381E+00
              0.145514255964651E+01
              0.691687825858146E+00
              0.287866869657496E+00
              0.466052589747896E+00
              0.827371147869941E+00
             -0.104836231750245E+01
              0.169517129235555E+00
              0.590892267760071E+00
              0.212415961412326E+00
              0.477878644628979E+00
             -0.120510701481488E+01
              0.596952193238717E+00
             -0.817910489108499E+00
             -0.594938074583056E+00
              0.400056035619095E+00
             -0.137025135229120E+00
              0.117570482471651E+01
             -0.211168342896474E+00
              0.570555227750693E+00
              0.565914568422139E+00
              0.145574898850244E+01
              0.982701768435880E+00
              0.987804545814769E+00
              0.467566543063125E-02
             -0.247355997001241E+00
             -0.557160894934787E+00
              0.159761579221099E+01
              0.158030699491846E+01
              0.762622982292355E+00
             -0.569074727878856E+00
              0.936858651424616E+00
              0.527352416070244E-01
              0.290448226804910E+00
              0.135238858368854E+01
             -0.575678243385380E-01
             -0.189976949558482E+00
             -0.367793049202758E+00
             -0.121873035504191E+01
              0.184631744104579E+01
              0.101875905850735E+01
             -0.126598174547607E+01
             -0.442288018462162E+00
              0.466620645912405E+00
             -0.190672099727948E+00
              0.127047345408002E+01
              0.287281427255365E+00
              0.156119697070775E+01
              0.618162961217389E+00
             -0.413803182446467E+00
              0.316055357340565E+00
             -0.139799800561230E+00
             -0.448812027511813E+00
              0.327829726752616E+00
              0.281780411228420E+00
              0.174581781467225E+01
              0.145006577496679E+01
              0.110714619788647E+01
              0.125667970981609E+01
              0.137066434324511E+00
             -0.482576069214106E+00
              0.253546668845019E+00
             -0.620388842163624E+00
             -0.111173018316395E+01
             -0.106201330136728E+01
             -0.629158611269214E+00
             -0.206112924678780E+01
             -0.742554316977801E+00
             -0.166301739131111E+01
              0.409279226978755E+00
             -0.851363300219297E+00
              0.101330036202102E+01
             -0.191473208196534E+01
             -0.566896608651737E+00
              0.681425169318449E+00
              0.415307099203881E+00
             -0.176252006712656E+01
              0.981799800054100E+00
             -0.550553913521179E+00
              0.106392642454271E+01
             -0.499731103386575E+00
             -0.149947586913026E+01
              0.344465482542725E+00
             -0.126710292323665E+01
             -0.137893832325044E-01
             -0.431826828375201E-01
              0.775178127052066E+00
              0.240783241976151E+01
             -0.806058619699217E+00
             -0.715859098586435E+00
             -0.147608382104030E+00
             -0.128056186142434E+00
             -0.152645292819265E+01
             -0.106818558007793E+01
              0.935623475618728E+00
             -0.310464716245336E+00
              0.458917264579636E+00
             -0.938250680494829E+00
             -0.322819803836687E+00
             -0.790263772784016E+00
              0.911042669611882E+00
              0.209919100738748E+00
             -0.472898428867985E+00
             -0.369069459924017E+00
              0.274804166296898E+00
             -0.139584521100234E+00
              0.750843405315413E+00
             -0.507525288625621E+00
              0.254987919862883E+00
              0.654981916566213E+00
              0.218876078335283E+00
             -0.484394378640692E+00
              0.295251201365944E+01
              0.116773704585847E+01
              0.207848966009693E+00
              0.107836082165814E+00
             -0.115947852862353E+01
              0.648353097869353E+00
             -0.151482913713284E+01
             -0.678063547606626E+00
             -0.115915036192730E+01
             -0.347884787986830E+00
              0.114700114887244E+01
             -0.111691002410984E+01
              0.541878601460090E+00
             -0.903713051685351E-01
              0.167970791591210E-01
             -0.572745027103583E+00
             -0.782937435949999E+00
             -0.153046670114700E+00
             -0.585350934750247E+00
             -0.410963062000814E+00
             -0.759588433525091E+00
             -0.868786879646186E-01
             -0.602512133730741E+00
             -0.916378036102373E+00
              0.388459134304403E+00
             -0.200515479271347E+00
              0.481881129093731E+00
              0.150368843244411E+00
             -0.145538250833459E+01
             -0.954995139661885E+00
             -0.998066933998868E+00
              0.583802968779317E+00
             -0.152302620055417E+00
             -0.116259136744331E+01
              0.109190100821867E+01
             -0.812598885853668E+00
              0.114970858854849E+01
             -0.607320174370404E+00
             -0.939162102483953E+00
              0.448805858258137E+00
             -0.139842069707710E+01
             -0.580891397401552E+00
              0.109725444009463E+01
              0.391346854638602E+00
             -0.868686029405456E+00
              0.108449627094390E+01
             -0.308227497612320E+00
             -0.721514999265798E+00
             -0.564700254568224E+00
             -0.100563077817950E+01
              0.511201959135768E+00
             -0.165942891903628E+01
             -0.143600366049703E+01
             -0.154299133288157E+00
             -0.556979934199998E+00
             -0.117410809167832E+01
              0.147522159533891E+01
              0.265890984686377E+01
             -0.369461651359898E+00
             -0.852127641985181E-01
             -0.113654525772695E+01
              0.127687681145198E+01
              0.427433913537285E+00
             -0.416942354936706E+00
             -0.681505702045005E+00
              0.273321752032613E+00
             -0.113399788302950E+01
             -0.201575061568969E+00
             -0.162688953796459E+01
              0.652876597571122E+00
              0.195258611770474E+00
             -0.120146710800068E+00
             -0.251576966660300E+00
             -0.834518049122391E+00
             -0.274563337820174E+00
              0.264343347854371E+01
             -0.295168093377864E+00
             -0.948882811379076E+00
             -0.133911458584264E+01
              0.278152982794764E+00
             -0.751064500749688E+00
              0.209466375017830E+00
              0.650885835229782E+00
              0.922192393651260E-01
              0.704273416854649E+00
              0.364551442600288E+00
              0.112026489567611E+01
              0.449764179994571E+00
             -0.713554190558471E+00
              0.109352215544283E+01
              0.651069744762953E+00
              0.242183348171300E+00
              0.688536297469431E+00
             -0.636438410055989E+00
              0.136291314719277E+01
              0.531695178916202E+00
             -0.680407395407839E+00
             -0.101289016096141E+00
             -0.315161428942651E+00
              0.274882259930406E+00
             -0.473565115123648E+00
             -0.262759214110003E+00
             -0.252283187017159E+00
              0.155537603223176E+01
              0.113124174200956E+01
             -0.120506069515859E+01
             -0.172497765216078E+00
             -0.942826762651384E+00
             -0.242834106414117E+00
             -0.398558288446105E+00
              0.227920743473951E+00
             -0.599699014775737E-01
             -0.559392325534398E+00
              0.359389386567722E+00
             -0.184953397828374E+00
             -0.118330574042386E+00
              0.167796022182028E+01
              0.269796874731735E+00
             -0.161745206551177E+01
             -0.714846106374623E+00
              0.185786645366376E+01
              0.447401298990971E+00
             -0.160511740993057E+00
              0.211254183804418E+01
             -0.299474503389074E+00
             -0.140044490015531E+00
             -0.247661339557240E+00
              0.313220223220886E+00
              0.661732013005481E+00
              0.437390896838457E-01
              0.544207469194644E+00
             -0.195536008912472E+00
             -0.796706946902379E+00
             -0.754266777984493E+00
             -0.920098072640172E+00
              0.764056645583929E+00
              0.282109146135592E+00
              0.725055788792606E+00
              0.310169981439318E+00
              0.174662711814566E+01
              0.403381929099066E+00
             -0.147355225070369E+01
             -0.635517526467070E+00
              0.261083901263104E-01
             -0.536099350321925E+00
              0.123300424719930E+01
             -0.307716410409355E+00
              0.326948094356769E+00
              0.107816434510240E+01
             -0.157016715409005E+01
              0.283059191596856E+01
              0.378037518540977E+00
              0.464179894515691E+00
              0.738398316451569E+00
              0.489939221767255E-01
             -0.328689571162446E-01
              0.612041763680890E+00
             -0.676239756968823E+00
              0.168776225379432E+01
              0.147248764191159E+01
             -0.749018858066200E+00
              0.325556211056510E+00
              0.139469510195248E+01
             -0.408275289178330E+00
              0.414364754040389E+00
              0.604655603334801E+00
              0.786115519916352E+00
             -0.141772041363935E+01
             -0.901323299915227E-01
             -0.484245018230941E+00
             -0.115945824005068E+00
             -0.143816816198200E+00
              0.162268636610872E+00
             -0.223249227340082E+00
             -0.591272482374890E+00
              0.345364094249397E+00
              0.101396658341926E+00
              0.102218402829606E+01
             -0.908398156486045E+00
              0.907148209470224E+00
              0.983211735165744E+00
             -0.140758665169744E+00
              0.140715459043904E+01
             -0.129224874447464E+01
             -0.198503834462745E+01
             -0.167715230991299E+00
             -0.133541478079591E+00
             -0.153003873104716E-01
              0.150461202192429E+01
             -0.314777705966640E-02
              0.826592367078176E+00
              0.117590403914642E+01
              0.749660918927841E+00
             -0.128426379246493E+00
              0.112562205949966E+01
             -0.327054105464829E+00
             -0.764646921096087E+00
             -0.657529243045947E+00
              0.217098970257341E+00
              0.658020610053446E+00
             -0.386903248683872E-01
              0.630659869160750E+00
              0.150184799873352E-01
              0.104986972313705E+01
              0.297121079520646E+00
              0.152758814316718E+00
              0.385259306033241E-01
              0.555787656465552E+00
              0.790994639440111E+00
              0.266776273832769E+00
             -0.710702357204793E-01
             -0.104993436245468E+01
              0.584731141068094E+00
              0.404947569147100E+00
              0.616879638200396E+00
              0.575177799916801E+00
              0.703777775101247E+00
             -0.186640855594795E+00
              0.678819595697842E+00
             -0.572526427383245E+00
             -0.311534446035839E-01
             -0.100372583743442E+01
             -0.670515420063148E+00
              0.836534631713988E+00
             -0.168426228828067E+01
              0.448118704721420E+00
              0.263621880743086E+00
              0.166619764950303E+01
             -0.211016841753396E+00
              0.640629337741854E+00
             -0.216770280339778E+00
             -0.958720322868751E+00
             -0.124086079920456E+01
             -0.314986222022101E+00
             -0.175733828847114E+01
              0.135402882364833E+00
             -0.391489464098241E+00
              0.636265591418375E+00
              0.481734490180502E+00
             -0.565667465082884E+00
             -0.591828715709752E+00
              0.827372934007938E+00
             -0.111118881630850E+01
             -0.267164603171826E+00
             -0.309338144371718E+00
              0.537701389902596E+00
              0.127268003370486E+00
              0.696826082867164E-01
             -0.278422190825601E+00
              0.102728457856212E+01
             -0.119229875517587E+01
              0.121204087728291E+00
              0.115903168106084E+01
             -0.715108768267056E+00
              0.748213190921319E-01
              0.545031199285120E-01
             -0.123588434186302E+01
             -0.703520762559921E+00
             -0.168444220059913E-01
              0.612238861108868E+00
              0.681107055116256E+00
              0.854064230650824E-01
             -0.245340504413598E+00
              0.322779145337721E+00
             -0.765370786042756E+00
             -0.111202016222387E+00
             -0.101681495856515E+01
             -0.505390542610265E+00
              0.970167848202061E+00
             -0.587919851937135E+00
              0.136462866154373E+01
             -0.462606448783120E+00
              0.628626219178668E+00
              0.490904041710559E+00
             -0.114636436596032E+01
             -0.475524173600301E+00
              0.197660159129911E+00
             -0.823166017513882E+00
             -0.802616147652634E+00
             -0.173424902538773E+01
             -0.106206456067358E+01
             -0.944597345776657E+00
             -0.874942423636226E+00
              0.937073501065200E-03
              0.496226153625398E+00
              0.244359706320783E+00
              0.558066194056196E+00
             -0.113229880413181E+01
              0.254664681968841E+00
              0.566940675619698E+00
             -0.132579255925642E+01
             -0.107904171172910E+01
             -0.754562337922954E+00
             -0.662636226658248E+00
              0.263440797397577E+00
             -0.737415699595623E-01
             -0.798919145762848E+00
              0.516599747012687E+00
             -0.457178318314069E+00
              0.100720478295915E+01
             -0.169668460670163E+01
              0.124766603105470E+01
             -0.247931053593647E+00
             -0.856292412862313E+00
             -0.532798315158361E+00
             -0.281642425244000E-01
              0.962234501237124E+00
             -0.133241814345457E+01
             -0.242714006729656E+00
             -0.314214956249168E+00
              0.770264304197622E+00
              0.153914417710343E+01
             -0.194293302404899E+01
              0.176070150793169E+01
              0.723515935007962E+00
             -0.147284923806970E+01
             -0.587827500537527E+00
              0.153243018439191E+01
              0.108792997253111E+01
             -0.411531507888954E+00
             -0.143818568957166E+00
              0.370619072182092E+00
              0.152387262009972E+01
             -0.116064510032402E+01
              0.233718558863602E+00
             -0.153622542411223E+00
              0.488399552907532E+00
             -0.134564582746407E+01
             -0.381002625723510E-01
             -0.496511583884404E+00
              0.938552420892222E+00
              0.726314639303008E+00
             -0.172449412742393E+01
             -0.901612071273342E+00
             -0.389731340914697E+00
             -0.870182532223349E+00
             -0.238591583396928E+00
             -0.326119794600674E+00
              0.885681665468373E+00
              0.833304156111834E+00
             -0.126207176803268E-01
             -0.858118663040711E+00
             -0.166861728656340E+01
              0.997965165309783E+00
             -0.874069397023407E+00
             -0.740187478020734E+00
              0.144324665104640E+00
             -0.729222881456039E+00
             -0.775814307171696E+00
             -0.614194503169097E+00
             -0.101234708713521E+01
             -0.450682533593705E+00
             -0.957878748888767E+00
              0.104752494574294E+01
              0.111698804020420E+01
             -0.231212996353076E+00
             -0.387841132927010E+00
              0.751501714528828E-01
              0.815278878685948E+00
             -0.162217075783164E+01
             -0.458899151627639E+00
              0.949191506303249E+00
              0.140037830194439E+01
             -0.175143710059033E+00
              0.194576741850629E+00
              0.101894524152422E+01
              0.287551989259057E+00
              0.571909702472420E-01
             -0.746813807184974E+00
              0.260434701291834E+00
             -0.619426163707776E+00
             -0.118758830534533E+00
             -0.421692168772620E+00
             -0.263098364670521E+00
              0.480564283861807E+00
              0.152774584668505E+01
             -0.148622674756969E+00
              0.295790851453006E-01
             -0.176482051252894E+01
             -0.345858383080650E+00
             -0.680509495062189E+00
             -0.336794926004034E-01
             -0.937336147466202E+00
              0.177056085417400E+01
              0.167780265368370E+01
              0.359512928617533E+00
             -0.467956091457298E+00
              0.366490927411546E+00
              0.370386698811387E+00
             -0.891925576370792E+00
             -0.183812516766132E+00
              0.398370240229415E+00
              0.226680206671855E+00
              0.973995934829991E+00
              0.741733978059266E+00
             -0.400963255207788E+00
              0.391609616860701E+00
             -0.187597631442598E+01
             -0.273507721634467E-01
              0.173863678092309E+01
              0.366010066793145E+00
             -0.607001843070893E-01
              0.510305802562335E+00
             -0.455909504229497E+00
              0.166066096214221E+01
             -0.405392207617327E+00
              0.147289782856504E+01
              0.744630714012140E+00
             -0.867709620006707E+00
              0.643946788859068E+00
             -0.536364036537454E+00
             -0.131164733954049E+01
             -0.157133986095696E+00
             -0.103984750335866E+01
             -0.998936190708619E+00
             -0.227954033404494E-01
              0.741269903825039E+00
             -0.288151285804519E+00
             -0.576609776327723E+00
              0.140338021668604E+00
             -0.124969277764984E+01
             -0.548115233200720E-01
             -0.168607731581128E+01
              0.998544150488860E+00
             -0.814521895934268E-01
             -0.943251309823684E+00
             -0.285622441936842E+00
              0.333782928176085E+00
             -0.749711913248587E+00
             -0.847485207438916E+00
              0.176760074319520E+01
             -0.548836766664242E+00
             -0.701746674926710E+00
              0.624686604525601E+00
             -0.442555555512212E+00
              0.112173426093131E+01
             -0.467047223741677E-01
              0.431773400397009E-01
              0.213272673677738E+01
             -0.146805238981157E+00
             -0.751602591931475E+00
             -0.938768374101905E+00
             -0.980673096375192E+00
             -0.730742338554759E+00
              0.567008068040952E+00
              0.615868182963212E+00
              0.547534413641680E+00
              0.143459224122397E+01
              0.112606379545149E+00
              0.453949036772717E+00
             -0.109904840780272E+01
              0.391714693030112E-01
             -0.283083425190595E+00
             -0.526413650795023E+00
             -0.155054218765150E+00
              0.633685123551186E+00
              0.732929403438643E+00
             -0.546972959434133E-01
              0.267226440251351E+00
              0.520211841158356E+00
              0.647398640646703E+00
             -0.458730807732358E+00
             -0.184199418714170E+00
              0.770227048963301E-02
             -0.505632535608148E+00
             -0.433197855490102E-01
             -0.797846816757221E+00
              0.153443131444504E+01
              0.118921364677527E+01
             -0.358833414731604E+00
              0.327540489912537E+00
             -0.116030741446262E+00
             -0.632786794975804E+00
              0.728988917630511E+00
             -0.183230398660694E+00
              0.712865908546631E+00
             -0.910822001307768E+00
              0.341764765269721E+00
             -0.146434869057760E+00
             -0.103400214385461E+01
             -0.461545479523160E+00
              0.461111812744235E+00
             -0.189998067593859E+01
              0.742837745970178E+00
              0.894865737025304E+00
             -0.199138514095745E+00
             -0.149381809309379E+00
             -0.763968334905876E-01
              0.521828091655818E+00
             -0.658305245467858E+00
              0.586824476074021E+00
              0.627092548233578E+00
             -0.171665223465512E+01
             -0.715232201963845E+00
              0.465733751038338E+00
             -0.244671474154480E+00
              0.966036126642704E+00
             -0.119851637117104E+01
             -0.213324532361662E+00
             -0.764544211884867E+00
             -0.252450875615757E+01
              0.152856111298062E+01
             -0.114930601674885E+01
             -0.130837905262093E+01
              0.116046380793396E+00
              0.248802571665343E+01
              0.144674579767647E+00
             -0.647824762937459E+00
             -0.284385662041657E-01
             -0.712613206853940E-01
             -0.164580939911605E+01
             -0.104956569037524E+01
              0.166000106749038E+01
             -0.243649598933855E+00
             -0.685505808347090E+00
              0.926091901675303E+00
             -0.630430993008295E+00
              0.633235459633324E+00
              0.924082465057468E+00
             -0.100997254947285E+01
             -0.547156333895281E+00
             -0.617210940816348E+00
             -0.347871006145933E+00
             -0.371414359042365E+00
             -0.376727530593813E+00
              0.393068005043625E+00
             -0.688477753202500E+00
              0.526077034240673E+00
              0.104724245864804E+01
             -0.111049927605976E+00
             -0.410698157374422E+00
              0.299306581389764E+00
              0.104995760464218E+01
              0.107089066940949E+01
              0.220693267929833E+00
             -0.221018415103035E+00
             -0.225548735428003E+00
             -0.103328047541320E+01
              0.783872982260284E+00
             -0.473339765376996E+00
              0.446308932084172E+00
             -0.247699171158120E+00
              0.494017075357417E+00
              0.335246571481778E+00
             -0.157866495596202E+01
             -0.481711252031630E+00
             -0.151781578516420E+01
             -0.787392961615463E+00
              0.788523597699307E-01
             -0.387176883704652E+00
              0.687005847768623E+00
             -0.548232168903164E+00
              0.712696122807279E-01
              0.133612568457722E+00
              0.134166818701516E+01
              0.689791894245134E+00
             -0.639893185865501E+00
             -0.485545307991164E-01
              0.296751421583995E+00
              0.715695243021686E+00
             -0.139044838698146E-01
              0.109686272285488E+01
              0.525481945397425E+00
              0.174196104463971E+01
              0.649013273741215E-01
              0.118291951111804E+01
             -0.535754402657495E+00
             -0.753560946176220E+00
              0.320978862347561E-01
              0.218337697976372E+00
              0.427934367760610E+00
             -0.419406548602685E+00
             -0.203648929480395E+00
              0.449829889635199E+00
             -0.916018182064526E+00
             -0.116907581411816E+01
              0.154562036097573E+01
             -0.117308076746289E+00
             -0.691743570093368E+00
             -0.104998035880963E+00
             -0.271000403089150E+00
              0.869978863919268E+00
              0.697923120112297E+00
             -0.392978906400479E+00
              0.228373552320171E-02
             -0.494864299648738E+00
             -0.688135091214566E+00
             -0.454692702662078E+00
             -0.189179553145655E+01
              0.360047829836265E-01
             -0.123256875571527E+01
             -0.114634019353295E+01
             -0.709364869094138E+00
              0.442274919875020E+00
             -0.740839151020122E+00
              0.474918215440575E+00
             -0.126209638196954E+01
              0.175802441428718E-02
             -0.820825774403718E+00
              0.157338329799066E+00
              0.147964372011965E+00
              0.691175125021240E+00
             -0.401150617055897E+00
             -0.357297571214465E+00
              0.625515545494556E+00
              0.114324056203715E+01
              0.625386372338388E+00
              0.220105571744643E+00
             -0.144579977022902E+01
             -0.312281501942589E+00
             -0.531670100938863E+00
             -0.118528907483615E+01
              0.828217614421270E+00
             -0.668942813172853E+00
             -0.150802800130531E+00
             -0.538659501520526E+00
             -0.190314872549479E+01
              0.108769669290731E+01
             -0.354915986166736E+00
              0.742381117434652E+00
             -0.143594674342773E+01
              0.126424892114193E+01
              0.122207786216780E+00
             -0.487231350934005E+00
              0.214702231098190E+00
             -0.378408218111389E+00
             -0.118917332550904E+01
              0.334591286705002E+00
              0.779319386201013E+00
             -0.354891445458136E-01
             -0.663994564796502E+00
             -0.310926402321915E+00
              0.406134143186235E+00
              0.724112741410540E+00
              0.118602995718547E+01
              0.427008442722183E+00
             -0.448170608435198E+00
              0.195972779192732E+01
              0.400280858257491E+00
              0.927252854062202E+00
             -0.323569433545078E+00
              0.568536674656926E+00
              0.473240543910902E+00
             -0.118386940383951E+01
             -0.436459202531435E+00
             -0.779720240339907E+00
             -0.820636778242961E+00
             -0.237870171057571E+00
             -0.152027513837419E+00
             -0.910154512972555E+00
             -0.212742693717820E+01
             -0.517903366196699E+00
              0.256792978829631E+00
              0.115212145149053E+00
              0.318007309149474E+00
              0.767285082325592E+00
              0.192305496566902E+00
              0.605017551755700E+00
             -0.834374236158269E+00
              0.826138190106658E+00
             -0.750015675171432E+00
             -0.128050955554019E+01
              0.401897848481060E+00
             -0.822029492779380E+00
             -0.762367409029076E+00
             -0.306944190938504E+01
             -0.133803454814172E+00
              0.163259679014013E+01
              0.769160772562749E+00
             -0.192305602640833E+00
             -0.207630070895134E+00
              0.875249165845715E+00
              0.122881014503924E+01
             -0.745610919249036E+00
             -0.253259576277740E+00
             -0.709380488473652E+00
             -0.638977146200743E+00
             -0.559306457256847E+00
              0.195149503175568E+00
              0.133335830703271E+01
             -0.125032487131487E+01
             -0.105143729067499E+01
              0.788345265656778E-01
             -0.297413018952184E+00
             -0.330540508498481E+00
             -0.171615894048436E+01
              0.122781692039317E+01
              0.367902536806657E+00
              0.188467200335805E+00
              0.100889366951580E+01
             -0.639147066583381E+00
              0.651723045983642E+00
              0.554196981747195E+00
              0.171123433100497E-01
             -0.160423410343995E+00
              0.151598974010900E+00
             -0.304706079126904E+00
              0.103425328706879E+01
             -0.757845755538365E+00
              0.906817736661569E+00
              0.175779946897469E+00
              0.339121522430954E+00
              0.377329633277968E+00
             -0.156482728258500E+01
              0.204913486620747E+00
             -0.128309809068457E+01
             -0.922957955778304E+00
             -0.913178563421433E+00
             -0.103012952269172E+01
             -0.535927673960579E-02
              0.375499009135623E+00
              0.965766433605129E+00
              0.134495231548222E+00
              0.286384998281419E+00
             -0.133423487747492E+01
             -0.539409538958747E+00
              0.616384423343256E+00
             -0.894256604531098E-01
             -0.751514451524606E-01
             -0.186508704762760E+00
              0.687456750991957E+00
             -0.174121407070211E+01
              0.260787582377786E+00
              0.391155928453645E+00
              0.748317563715945E+00
              0.710030633243148E+00
             -0.108873235123413E+01
              0.316376377185175E+00
              0.131062745657875E+00
              0.134327047479881E+00
              0.128128696915078E+00
             -0.374504254614889E+00
             -0.854024591304194E+00
              0.347820447167210E+00
              0.111314340374282E+01
              0.402160973024479E-03
              0.268691947155908E+00
              0.239848743312268E+00
             -0.603667638987363E+00
             -0.648356264771189E+00
             -0.237709844158849E+01
             -0.719760778870496E+00
             -0.114580264675809E+01
             -0.115354815478626E+00
             -0.132156141159966E+01
              0.145038342690885E+01
             -0.656271546654077E+00
             -0.106335948097510E+01
             -0.301273563937832E+01
              0.128906964597954E+01
              0.288824916823232E+00
              0.225547065281406E+00
             -0.117037471532816E+01
              0.719921335055638E-01
             -0.321613816940979E+00
             -0.597790941768199E+00
              0.166657824289289E+00
              0.624424405904305E+00
              0.889561766873865E-01
             -0.408190012682102E+00
              0.868155749324266E-01
              0.234652629732581E-01
              0.190721135065511E+00
             -0.128941122922790E+01
              0.142670594931108E+01
             -0.800357170221543E+00
             -0.509708933479949E+00
             -0.101998742448709E+01
             -0.213299910428044E+01
              0.854230817270700E-01
             -0.112661613579925E+01
             -0.336415410146298E+00
              0.585863513842297E+00
             -0.528004343581141E+00
             -0.238291015763297E+00
             -0.254925370825470E+00
             -0.365489602599880E+00
              0.740903502376995E-01
              0.992619797861530E+00
             -0.956239204134416E+00
              0.202308607185938E+01
             -0.497281708560783E+00
              0.613424145457836E+00
             -0.376829705500365E+00
              0.225253812447438E+00
             -0.235562023187552E+00
              0.849870727570602E+00
              0.120420159940122E+01
              0.347883289775879E+00
              0.823840393531369E+00
             -0.551006176696398E+00
             -0.157992495774120E+00
             -0.451789335252522E+00
              0.122154252093601E+01
              0.105362314234842E+01
              0.766280163054759E+00
             -0.238921405002747E+00
             -0.485064525565368E+00
              0.465849671257556E+00
             -0.568859992709070E+00
             -0.281925895362424E+00
             -0.108068110598905E+00
             -0.697967153547462E+00
              0.935703271562983E+00
             -0.220773554120918E+00
              0.690762059826540E+00
              0.450178383429353E+00
              0.284997490219694E+00
             -0.653013865032464E+00
              0.466493094708916E+00
             -0.265044111524231E+00
             -0.129617557650616E+00
             -0.130217347131483E-01
             -0.913765768576100E+00
              0.148745107825904E+01
             -0.510687516730340E+00
              0.888927878293977E-03
              0.485892858986385E+00
              0.406329964765289E+00
              0.149816098327451E+01
             -0.421609070882369E+00
              0.144071728576132E+01
              0.127753448935372E+01
             -0.177912525230412E+01
              0.132674294069247E+00
             -0.349462776179179E+00
              0.237752765604672E+00
              0.814864535745912E-01
              0.427186363866330E+00
              0.124038923245367E+01
              0.194579202663827E+01
             -0.139708690657142E+01
              0.145798125808219E+01
             -0.195461566379845E+01
             -0.168086244180072E+01
             -0.292370161445420E+00
              0.158841293172429E-01
              0.152937879918582E+01
              0.606415478935689E+00
             -0.245866722786189E+00
             -0.158235889897797E+01
              0.128509415042105E+01
             -0.777168130438341E+00
              0.346125337319645E-01
             -0.104177730973079E+00
              0.250249844382432E+01
             -0.419247883493481E+00
             -0.202462243770660E+01
              0.583381822058305E+00
             -0.313030715659926E+01
              0.245465509345695E+00
             -0.745909372919706E+00
             -0.337052842479009E+00
             -0.496346478290777E+00
             -0.115357040716098E+01
              0.700342150305305E+00
             -0.709825740383167E+00
             -0.279905230266028E+00
             -0.144810920793639E+01
             -0.765211350999513E-01
             -0.105630968764831E+01
             -0.149089376233075E+01
             -0.200301975611477E+01
              0.144010519331363E+00
             -0.729868733277189E+00
              0.226100749858693E+00
             -0.268181653836480E+00
             -0.160284892777281E+01
             -0.124298643418929E+01
             -0.109440877288595E+01
             -0.114412924605016E+01
              0.999361209431031E+00
              0.989828441767449E-01
             -0.964257390875566E+00
             -0.490531388491100E+00
             -0.541488642077913E+00
              0.813744332131162E+00
             -0.584028097018050E+00
             -0.678822105018320E-01
             -0.626605959354663E+00
             -0.761690922118402E+00
             -0.812854663984025E+00
              0.779548647758127E+00
             -0.240303056374623E+00
             -0.178287506530353E+01
              0.148929033473750E+01
              0.865873645378966E+00
              0.508711636179129E-01
             -0.158381361072447E+01
             -0.143187419686201E+01
              0.839082294045674E-01
              0.304795143918657E-02
             -0.653240136009170E+00
             -0.832758346603587E+00
              0.563199229536884E+00
             -0.883226638014953E-01
              0.521794474450983E+00
              0.919236409618961E+00
              0.672217620920018E+00
              0.464493763489839E+00
              0.412703443194635E+00
             -0.427892705900363E+00
             -0.302450603073757E+00
             -0.364440807450424E+00
             -0.747430861684240E+00
             -0.899805110212478E+00
             -0.115407545145583E+01
             -0.684079501591956E+00
             -0.250551629967316E+00
             -0.141033077232045E+01
             -0.357210188306659E+00
              0.703482040362229E+00
             -0.166068761372500E+01
              0.727199970006863E+00
              0.584514313023441E+00
             -0.141154478327040E+01
             -0.107041246356367E+01
             -0.455510514746038E+00
              0.224900716955788E+00
             -0.801992354250249E+00
              0.146360697407837E+01
              0.129109601234692E+01
             -0.149398634337430E+01
              0.782780936806361E+00
              0.700735175617697E+00
              0.189540408046693E+00
              0.355446438812016E+00
             -0.823296937280071E+00
             -0.304936344686336E+00
              0.133210630582344E+00
              0.401717203440329E+00
              0.787472016468921E+00
             -0.103785963108643E+01
             -0.225558058574167E+00
              0.304768153989182E+00
              0.224925373053977E+00
             -0.670774295993037E+00
              0.354713990919742E+00
             -0.473822382252624E+00
             -0.341565564089610E+00
             -0.256343929986880E-01
             -0.119363978828831E+01
             -0.730932417969932E-02
             -0.140327656527850E+00
             -0.305141703170587E+00
              0.328357856571891E+00
             -0.100952266337895E+01
              0.113902474567223E+01
             -0.404626700193929E+00
             -0.260546572777710E+01
             -0.165665876441003E+01
              0.659704815091785E+00
             -0.829312403625869E+00
             -0.421549299815400E+00
             -0.433565128639217E+00
             -0.379527541216886E+00
             -0.200459271479636E+01
             -0.142599823226064E-03
             -0.119589337701170E+01
             -0.661696724607420E+00
              0.369650757824014E+00
              0.154715559536989E+01
              0.995558866772280E-01
              0.582903276922004E-01
              0.116625514473720E+01
             -0.114498452939617E+01
              0.526010215408049E+00
              0.109348204950540E+00
             -0.104169717073087E+01
             -0.616335461006660E+00
              0.364461327046346E+00
              0.684062345490468E-01
              0.338099575171400E+00
              0.268498387375834E+00
             -0.455171628416149E+00
             -0.660367075713172E+00
             -0.968400163302894E+00
              0.964843267963892E+00
             -0.132311277510679E+01
             -0.974678148138430E+00
              0.281753416746653E+00
             -0.161274409141819E+01
              0.464563862264406E+00
              0.116442347304579E+01
             -0.236014372561104E+00
              0.409382969602416E+00
             -0.675364611540178E+00
             -0.438611014875664E+00
              0.208900760319922E+00
              0.693248258485586E+00
             -0.701621888611213E+00
              0.421739076443550E+00
             -0.279863916687540E+00
              0.173393436450753E+00
              0.338462380252390E+00
              0.161088284978079E+00
             -0.252577229897189E+00
             -0.177597444405695E-01
              0.209337090707725E+00
              0.540758569004430E+00
             -0.136814247868747E+01
             -0.471159957524705E-01
              0.101512385531517E+01
             -0.168367159051121E+01
              0.636766478138845E+00
             -0.218162431272812E+01
             -0.228180919503409E+00
             -0.271521468220896E+00
             -0.415340174603536E-01
             -0.253353126249229E+00
             -0.534927441987414E+00
             -0.221485287137014E+00
              0.229071645380389E+00
             -0.502139333713726E+00
              0.202943531035103E+00
              0.176009743831422E+01
             -0.108614774238317E+01
             -0.482720310381638E+00
              0.825536517969804E+00
              0.399034946498532E+00
              0.829905560280312E+00
              0.404854464364222E+00
              0.294177360903841E+00
             -0.274539831293162E+00
             -0.952750622898246E+00
             -0.867266914502730E+00
             -0.704918793789005E+00
              0.125881400570511E+00
             -0.824322470790980E+00
             -0.221281305318075E+00
              0.114344879866049E+00
              0.477589426027910E+00
             -0.125441928516912E+00
              0.114361617694743E+01
             -0.129872124895855E+01
             -0.904791971752772E-02
             -0.148518878372129E+00
              0.614686021735032E+00
             -0.815375876683776E+00
             -0.538033621556104E+00
              0.228616689858281E+00
              0.857697772597426E+00
              0.147216314400225E+01
              0.564558173318777E+00
              0.898662820865932E+00
             -0.467123766216295E+00
              0.121820305543931E+01
              0.121568087002539E+01
             -0.131628625681657E-01
              0.571539784008094E+00
              0.722478335308989E+00
             -0.399842600025433E+00
              0.303154023420134E+00
              0.127326288827049E+01
             -0.392584838368854E+00
             -0.110844363813538E+00
             -0.119947610734974E+01
              0.420546165080330E+00
             -0.304919615511674E+00
              0.421815928031510E+00
              0.122255539653966E-01
             -0.750955088295448E+00
              0.874264542568761E+00
              0.756405149779142E+00
             -0.622929798057094E+00
              0.334572592589897E+00
             -0.116092812641872E+01
             -0.105501868967801E+01
              0.480410196850256E+00
             -0.131457764056431E+01
             -0.682019859437353E+00
             -0.372819191703044E-02
              0.166269609857450E+01
             -0.441972935964200E+00
             -0.209155457665770E+00
             -0.408691295988115E+00
              0.215080600669699E+01
              0.356440137783999E+00
             -0.824910711608699E+00
              0.137381332544702E+01
              0.120241540246145E+01
              0.635260334475484E+00
              0.155081593605920E+01
              0.170430913544805E+01
             -0.483440818341058E-01
             -0.554102927033844E+00
             -0.464018886255674E+00
              0.541155288137310E+00
              0.762602155192512E+00
             -0.143313876738541E+00
             -0.468236541448537E+00
             -0.109303953650110E+01
             -0.380954076595748E+00
             -0.900413437470576E+00
              0.664153980304546E+00
              0.345485672603935E+00
              0.116822102362950E+01
              0.275470867801194E+00
             -0.438632010343511E+00
             -0.174105327599134E+00
              0.763735108887080E+00
              0.192011114749683E+00
              0.120489513510377E+01
              0.106084060019662E+01
             -0.153092110270593E+00
             -0.177428946276163E+00
             -0.197652429925822E+01
              0.945202422237102E+00
              0.984581385991845E-02
              0.111829586252525E+01
             -0.506271829300636E+00
             -0.128739598221288E+01
              0.374120070985823E+00
              0.141313110506057E+01
             -0.485869866673559E+00
              0.126956739534893E+01
             -0.138272689458662E+01
             -0.508495387583433E+00
             -0.166863706578772E+01
              0.295228521316589E+00
              0.690352227862201E-01
              0.181856440152731E+00
             -0.120659422457299E+01
              0.181792150597048E+01
              0.104301671792206E+01
              0.112392929346758E+00
             -0.108071650479759E+01
              0.387546663419678E+00
             -0.330475982577594E+00
             -0.301612289208661E+00
             -0.545871793512640E+00
              0.314359666711703E+00
             -0.350927525918186E+00
             -0.353267583051002E+00
              0.462929642361965E+00
              0.448162262479206E+00
             -0.174008158416815E+01
              0.381783245648191E+00
              0.127649561188258E+01
              0.819120062544852E+00
             -0.246798108735499E+00
             -0.540799736879751E-01
             -0.708063774882612E+00
              0.106764156888163E+01
              0.156903219479018E+00
             -0.468452313335073E-01
             -0.119268240181679E+00
              0.209723873123982E+01
             -0.158868026573095E+00
              0.406685565000004E+00
              0.144692391641635E+01
              0.184319921001600E+01
              0.114745793432748E+01
              0.743992984787651E+00
             -0.124432500279740E+01
             -0.899130579632633E+00
              0.703925629963293E+00
              0.110399736497707E+00
              0.593331494083594E+00
              0.232793884835599E+00
              0.125921219411439E+01
             -0.153365264325100E+01
             -0.943692984931514E+00
             -0.229147472564169E+00
             -0.168908208319895E+01
              0.382036413601070E+00
              0.913101041385374E+00
             -0.190805533270311E-01
             -0.389930971084920E+00
              0.392622878458108E+00
              0.258214320197393E+01
              0.627047476419044E+00
              0.346753869724921E+00
             -0.903713386967484E+00
             -0.110039676220884E+01
             -0.248712513024106E+00
              0.551786711164184E+00
             -0.112338403969060E+00
              0.519737750124676E+00
              0.687106259407182E+00
             -0.116799742994532E+01
              0.523345656728434E+00
              0.605165449311901E+00
              0.107610758778858E+01
             -0.201555428182001E+00
              0.122150118420135E+00
             -0.134121360381962E+00
             -0.847727623180790E+00
             -0.141434886970468E+01
              0.144774168117335E+01
             -0.202393232904632E+00
             -0.100145785817186E+01
              0.175839509289757E+00
             -0.598662220592865E+00
              0.163160679276422E+01
             -0.446081938725651E+00
             -0.735105657284810E+00
              0.727290784058003E+00
             -0.305120071517881E+00
              0.903798986455352E+00
              0.625306432944699E-01
              0.175767871548715E+01
              0.102750406802236E+01
              0.265663993175630E+00
             -0.769747494283678E+00
              0.558941829228994E+00
             -0.103915530776105E+01
             -0.743198103800276E-01
              0.124372449371393E+01
             -0.483343228497364E+00
             -0.830740866574594E+00
             -0.449468385990386E+00
              0.986295772995346E+00
              0.217681293900149E+00
             -0.155210132285894E+01
              0.661800383068984E+00
              0.962983977226051E-01
              0.224341294940716E+00
             -0.936152176432250E+00
              0.209826702776708E+00
              0.657613969986205E+00
              0.862587122397948E+00
              0.126633605082476E+01
              0.691980183628957E+00
              0.149234628905371E+00
             -0.108157888132249E+01
             -0.800339742400088E+00
             -0.121571333239352E+01
             -0.295280104578637E+00
              0.664503133108534E+00
              0.144131629340949E-02
              0.993136731940655E+00
             -0.614342404579558E+00
              0.329242148010433E+00
             -0.471194941569445E+00
             -0.518336420836796E+00
              0.113551766820856E+01
              0.986291250798841E-01
              0.120713978732567E+01
              0.101666460319077E+00
              0.359919306739531E+00
             -0.311519051972221E+00
              0.115310140056712E+01
             -0.335158237701653E+00
              0.712173563959301E-02
             -0.150082950557056E+01
             -0.125216675544494E+00
              0.132968717346710E+01
              0.121739444366455E+01
              0.491752293845491E+00
             -0.312914702315302E+00
              0.117144266638395E+00
             -0.471015040981963E+00
             -0.414010933880350E+00
              0.173168699669074E+01
              0.166101460294847E+00
             -0.572215405701023E+00
             -0.202434141273251E+01
             -0.787922746075173E+00
             -0.732420028206548E+00
             -0.115413893712114E+01
             -0.114997547763198E+01
             -0.135708444834446E+01
             -0.863467403950804E+00
             -0.508890004643989E+00
             -0.933507816932258E+00
              0.844073626795985E+00
             -0.309737736321736E+00
             -0.156794671675576E+01
              0.790180448748654E+00
             -0.656374854197268E+00
             -0.152054233073808E+01
              0.194199048514691E+01
             -0.501619939599564E+00
              0.269416284652176E+00
              0.705949789370104E+00
              0.292903259371686E+00
              0.517954671543502E+00
              0.201541264125118E-01
              0.272004045911709E-01
             -0.252636722569060E+00
             -0.142177378727662E+01
              0.207175252551232E+00
             -0.228218178462906E+01
              0.142177086794230E+01
             -0.771328679062774E+00
             -0.374408890193567E+00
             -0.412972384788864E+00
              0.449015787409380E+00
             -0.291770230731148E+00
              0.530432216818568E+00
             -0.113739809351062E+01
              0.684276966133518E+00
              0.842216539228812E+00
              0.142525493760290E+00
              0.184977131985082E+00
              0.414685138122835E+00
              0.204879479265610E+00
              0.557697276876414E+00
             -0.712321959437334E-01
             -0.147648003474925E+01
              0.183420168169030E+00
             -0.687208763768090E+00
             -0.637030985408078E-01
              0.109908480055452E+01
             -0.152060366798714E+01
              0.500827622917281E-01
              0.752786903981812E-01
              0.186444268325511E+00
              0.577713008670998E+00
             -0.239652806663045E+00
              0.161813288037743E+01
              0.673323578528552E+00
             -0.267085043456724E+00
             -0.155461362490909E+00
              0.135296979835275E+00
              0.150436998854517E+01
             -0.928185803895095E+00
             -0.193289074726200E+01
              0.561561203877122E+00
             -0.152979089790203E+00
             -0.312255024894734E+00
              0.376263620296047E+00
              0.143702346586387E+01
              0.789299913496588E+00
             -0.323575174132824E+00
             -0.105130672152883E+01
             -0.261161075129315E+00
              0.519618940031147E+00
             -0.359264591924166E+00
             -0.147032459296573E+01
             -0.200242714384480E+00
             -0.190169849458317E+01
             -0.100854940751544E+01
              0.169726370937162E+01
             -0.101809510226032E+01
             -0.138716713929676E+01
             -0.101782830399518E+01
             -0.781304307068936E+00
              0.666386877405790E+00
              0.164720889282098E+01
             -0.211528587886279E+00
              0.507587894820877E+00
             -0.405601935879157E+00
             -0.131223068747484E+01
              0.997779521741896E+00
             -0.941272303287040E+00
              0.456301048946124E+00
              0.524773641368106E+00
             -0.319431067679898E+00
              0.688996803581522E+00
              0.729074854186964E+00
              0.237278450645719E+01
             -0.175277404763953E+00
             -0.112520191063954E+01
             -0.128431166855573E+01
             -0.387830752513052E+00
             -0.845492135248077E+00
              0.176148471812602E+01
             -0.871773577717815E+00
              0.200248460841078E+00
              0.260542203552356E-01
             -0.358994036367093E+00
             -0.167606400603791E+01
             -0.127031321387457E+00
              0.193986330348978E+01
              0.455748161809497E+00
              0.140940755428775E+00
             -0.116297515111528E+01
             -0.104219073810067E+01
             -0.378324180937787E+00
              0.861770268104978E+00
             -0.520883933227278E+00
              0.192541911136647E+01
             -0.942208330482740E+00
              0.380167766784290E+00
             -0.225873365015632E+00
             -0.117701186335260E+01
              0.139126209360662E+00
             -0.110383669829482E+01
             -0.142269589705405E+01
              0.230463985696044E+00
              0.236192395855439E-01
              0.946844919617747E+00
              0.534932971595052E+00
             -0.683982217179808E+00
              0.411286674979415E+00
             -0.173575300839119E+01
             -0.896337729561424E+00
              0.179286210093190E+01
              0.402447274498718E-01
             -0.743016024603236E-01
             -0.455393590732370E+00
             -0.801476590844530E-02
             -0.252789810093491E+00
              0.179969575555786E+01
              0.798177314419760E+00
             -0.143652330882039E+00
              0.323998793079738E-01
             -0.722726260022835E+00
             -0.219364411296226E+00
             -0.118090366889129E+01
              0.100588752601642E+01
              0.130238865941666E+00
              0.134442765596175E+00
              0.379667009058589E+00
             -0.291544565471436E+00
             -0.454773784228472E+00
              0.210323537830146E+00
             -0.218072186961965E+01
             -0.180574137994800E+00
             -0.196139003920567E+00
             -0.112853648115805E+00
              0.910564810463716E+00
              0.126121021550161E+01
              0.354397634618142E+00
             -0.179340245924252E+01
              0.122713381820747E+01
             -0.463414416399551E+00
             -0.712570880098449E+00
             -0.168490478321536E+01
             -0.489917336757654E+00
              0.124530340383594E+01
              0.665344782462515E+00
              0.324998552613191E+00
              0.691717827947508E+00
             -0.108371825964695E+01
             -0.964862116209659E+00
              0.122526878006571E+01
              0.803665217179468E+00
              0.893724081101902E+00
              0.200925026037178E+00
              0.209470963452193E+00
              0.101741252427659E+01
              0.190240546077856E+01
             -0.313559811948429E+00
              0.794767580529548E+00
             -0.620209183849630E+00
             -0.848451914659242E+00
             -0.679571777568403E+00
             -0.664381165636131E+00
             -0.275972846432961E+00
             -0.909198157447488E+00
             -0.356365702959546E+00
             -0.247295818069955E+01
              0.600333848802006E+00
              0.563037813252010E+00
             -0.680646696150478E-01
             -0.705059369034615E+00
             -0.339569864295201E+00
             -0.110415038775537E+01
              0.919496182978987E-01
              0.152170592039019E+01
             -0.359022084551000E+00
             -0.368162039940882E+00
              0.362954397684440E+00
             -0.991265992248891E+00
              0.164545518284932E+01
              0.293322013473667E+00
              0.970728827486322E-01
              0.999793464932937E+00
             -0.139443011843631E+00
              0.114518982597876E+01
              0.401372901742173E+00
             -0.114261176658004E-01
              0.267094250733554E+00
             -0.216760058566412E+00
              0.127807112790544E+01
              0.133772495936342E+00
              0.428880638162904E+00
             -0.169509797997148E+00
              0.204300593211677E+00
             -0.182198526763494E+01
             -0.672877016640967E+00
             -0.972106062228283E+00
              0.958128104956145E+00
             -0.698697176029655E+00
             -0.105144384220510E+01
              0.116030687910241E+01
             -0.266127425475986E+00
              0.788174796442547E+00
             -0.171128638165717E+01
              0.318831173152765E+00
              0.637378172891307E-01
              0.138998768943933E+00
             -0.280455799502371E+00
             -0.122352586793765E+00
              0.973284448093849E+00
              0.514091942407218E-01
             -0.104065369987291E+01
             -0.430354506627497E+00
              0.335451654088167E+00
             -0.221971617547482E+01
             -0.165805074445289E+01
              0.108928841812315E-01
              0.330798782219517E+00
             -0.100922680776415E+01
              0.338891276938478E-01
              0.196839182055263E+01
              0.541511865840162E+00
             -0.103556332431489E+01
              0.146307901427599E+00
             -0.207367363783749E+00
              0.261058074331245E+00
             -0.704728731177992E+00
              0.460574878654924E+00
              0.446405926268733E+00
             -0.174524566114290E+00
              0.218920511138809E+01
             -0.571822357232237E-01
             -0.590649383534668E+00
              0.632363694209188E+00
              0.824257590153966E+00
             -0.604054093216003E+00
             -0.108690499439590E-01
              0.190044419370190E+01
             -0.209650337312901E-01
              0.997146406537207E+00
              0.321237224415880E+00
             -0.120836137020530E+00
             -0.271574408321197E+00
              0.898102126524580E+00
             -0.115873335783755E+01
             -0.331927020916081E-01
             -0.397313502291744E+00
             -0.770080364190805E+00
              0.210667326055791E+00
              0.491224404074180E+00
             -0.575495717840084E-01
             -0.310782955200875E-01
             -0.812556282310209E+00
              0.272821405370453E+00
             -0.162965571260076E-01
             -0.412165821698775E+00
             -0.382634353525371E+00
              0.303525247646963E+00
              0.969713564178853E-02
             -0.754707561070752E+00
             -0.208112806148526E+01
              0.131960219090803E+00
              0.260554312647205E+00
             -0.966850337225605E+00
             -0.500697130918187E+00
              0.159393108709293E+01
              0.270995279853704E+00
              0.883675747778105E+00
              0.229410841160966E+00
              0.787789957604792E+00
              0.403097416098657E-01
             -0.767754357693804E+00
             -0.271400198083068E+00
              0.931508052032095E-01
              0.620696537410198E+00
              0.141758147062584E+01
              0.953562299006283E+00
              0.663123290884373E-01
              0.218655097254862E+00
              0.117320093103735E+01
              0.555864764935861E+00
             -0.132073447322634E+01
             -0.537520850814259E+00
              0.195553605253778E+00
              0.205887110284085E+00
              0.486244504705871E+00
             -0.978319906850214E+00
              0.781288674606440E-01
              0.814791564546266E+00
              0.939668809672110E+00
             -0.813714487442302E+00
              0.849032597431503E-01
             -0.510186260193679E-01
             -0.418436131898242E+00
             -0.460695295826197E+00
             -0.200723816664262E+00
             -0.279196414671722E+00
              0.228998855322664E+00
              0.814153832696008E+00
             -0.632278556563864E+00
              0.156613976326577E+01
              0.640561995711541E+00
              0.518419220280502E+00
              0.732314026701090E+00
              0.451592000990658E+00
              0.701028210263583E+00
              0.107455556138675E+01
             -0.919510445603813E+00
              0.121781355945151E+01
             -0.221125939381919E+01
              0.608575980570431E+00
             -0.202984675795161E+01
              0.155054478751758E+01
              0.152511962797743E+01
             -0.156968933356891E+00
             -0.897515354843383E+00
             -0.840568833890614E+00
             -0.101712310896018E+01
             -0.127957783326361E+01
              0.105825895698627E+01
              0.830384432199345E+00
              0.469729958653456E+00
              0.462885686541490E+00
              0.893105831659917E+00
             -0.800873232641466E+00
             -0.273507096454062E+00
              0.101944456476526E+01
             -0.236058928730827E+00
              0.959162150788008E+00
              0.151901699181670E+01
             -0.744310486619815E-01
             -0.147411729053918E+01
              0.129378760289640E+00
              0.252673633831136E-01
             -0.204587299529884E+00
              0.678707877354894E-01
             -0.124599098477235E+01
             -0.124015114965762E+00
              0.283030328025318E+00
              0.298366122811468E+00
              0.978498530893112E+00
             -0.826823885223390E+00
              0.953619685308350E+00
             -0.731840084774682E+00
              0.546470795466455E+00
              0.859070556875824E+00
 
 BEEF-vdW xc energy contributions
           1 :   -13.3925329093930     
           2 :    10.9200689110180     
           3 :   -7.35528799908278     
           4 :    4.01072081956959     
           5 :   -1.53662055048913     
           6 :   7.325207630804975E-002
           7 :   0.532341525892091     
           8 :  -0.598063151936536     
           9 :   0.466650126257727     
          10 :  -0.385061376017834     
          11 :   0.427201291645476     
          12 :  -0.527278071496537     
          13 :   0.578460052259452     
          14 :  -0.522947315968427     
          15 :   0.371410952716158     
          16 :  -0.183046853978004     
          17 :   2.344042266798141E-002
          18 :   6.739822095951098E-002
          19 :  -9.064474183006155E-002
          20 :   7.595340313405430E-002
          21 :  -5.668956756937860E-002
          22 :   4.605643356297584E-002
          23 :  -3.779140685195337E-002
          24 :   1.847352302751304E-002
          25 :   1.635887341955744E-002
          26 :  -5.397949062042606E-002
          27 :   7.216870082551985E-002
          28 :  -6.495945465452202E-002
          29 :   4.984226104616418E-002
          30 :  -4.478422873870613E-002
          31 :   -1.83948617304137     
          32 :   -1.13389362490850     

     Writing output data file ./pwscf.save/
 
     init_run     :     67.27s CPU     69.99s WALL (       1 calls)
     electrons    :    737.49s CPU    802.44s WALL (       1 calls)
     forces       :     27.76s CPU     30.19s WALL (       1 calls)

     Called by init_run:
     wfcinit      :      2.18s CPU      2.26s WALL (       1 calls)
     potinit      :     56.33s CPU     58.37s WALL (       1 calls)
     hinit0       :      7.14s CPU      7.28s WALL (       1 calls)

     Called by electrons:
     c_bands      :    115.09s CPU    116.49s WALL (      21 calls)
     sum_band     :     55.04s CPU     63.51s WALL (      21 calls)
     v_of_rho     :    430.81s CPU    472.17s WALL (      22 calls)
     newd         :     21.07s CPU     29.64s WALL (      22 calls)
     PAW_pot      :      2.88s CPU      2.89s WALL (      22 calls)
     mix_rho      :    162.62s CPU    170.03s WALL (      21 calls)
     vdW_kernel   :     33.57s CPU     33.57s WALL (       1 calls)

     Called by c_bands:
     init_us_2    :      1.98s CPU      2.01s WALL (      43 calls)
     regterg      :    110.75s CPU    112.15s WALL (      21 calls)

     Called by *egterg:
     rdiaghg      :      0.03s CPU      0.03s WALL (     158 calls)
     h_psi        :     98.23s CPU     98.25s WALL (     159 calls)
     s_psi        :      2.97s CPU      2.97s WALL (     159 calls)
     g_psi        :      0.34s CPU      0.34s WALL (     137 calls)

     Called by h_psi:
     h_psi:calbec :      2.44s CPU      2.44s WALL (     159 calls)
     vloc_psi     :     92.21s CPU     92.22s WALL (     159 calls)
     add_vuspsi   :      3.01s CPU      3.01s WALL (     159 calls)

     General routines
     calbec       :      2.99s CPU      2.99s WALL (     184 calls)
     fft          :    310.79s CPU    310.82s WALL (    3227 calls)
     ffts         :     66.46s CPU     66.47s WALL (     717 calls)
     fftw         :     87.43s CPU     87.43s WALL (     936 calls)
 
     Parallel routines
 
     PWSCF        :  23m 6.56s CPU  25m18.75s WALL

 
   This run was terminated on:  23:16:58   3Jan2023            

=------------------------------------------------------------------------------=
   JOB DONE.
=------------------------------------------------------------------------------=
