
     Program PWSCF v.6.8 starts on 23Jan2023 at  9:57:23 

     This program is part of the open-source Quantum ESPRESSO suite
     for quantum simulation of materials; please cite
         "P. Giannozzi et al., J. Phys.:Condens. Matter 21 395502 (2009);
         "P. Giannozzi et al., J. Phys.:Condens. Matter 29 465901 (2017);
         "P. Giannozzi et al., J. Chem. Phys. 152 154105 (2020);
          URL http://www.quantum-espresso.org", 
     in publications or presentations arising from this work. More details at
     http://www.quantum-espresso.org/quote

     Parallel version (MPI), running on     1 processors

     MPI processes distributed on     1 nodes
     166499 MiB available memory on the printing compute node when the environment starts
 
     Reading input from cch2c-gas-ensemble.in
Warning: card &CELL ignored
Warning: card / ignored

     Current dimensions of program PWSCF are:
     Max number of different atomic species (ntypx) = 10
     Max number of k-points (npk) =  40000
     Max angular momentum in pseudopotentials (lmaxx) =  4
     file C.pbe-n-kjpaw_psl.1.0.0.UPF: wavefunction(s)  2S 2P renormalized
     file H.pbe-kjpaw_psl.1.0.0.UPF: wavefunction(s)  1S renormalized

     **************************************************************************
     Initializing libbeef V0.1.2 with the BEEF-vdW functional.
     Citation: Wellendorff et al., PRB 85, 235149 (2012).
     **************************************************************************


     IMPORTANT: XC functional enforced from input :
     Exchange-correlation= BEEF-VDW
                           (   1   4  43  14   2   0   0)
     Any further DFT definition will be discarded
     Please, verify this is what you really want


     gamma-point specific algorithms are used

     Subspace diagonalization in iterative solution of the eigenvalue problem:
     a serial algorithm will be used

 
     G-vector sticks info
     --------------------
     sticks:   dense  smooth     PW     G-vecs:    dense   smooth      PW
     Sum       31717   31717   7927              4333529  4333529  541733
 
     Using Slab Decomposition
 


     bravais-lattice index     =            0
     lattice parameter (alat)  =      41.2770  a.u.
     unit-cell volume          =   69014.1750 (a.u.)^3
     number of atoms/cell      =            5
     number of atomic types    =            2
     number of electrons       =        14.00
     number of Kohn-Sham states=           11
     kinetic-energy cutoff     =      60.0000  Ry
     charge density cutoff     =     240.0000  Ry
     scf convergence threshold =      1.0E-06
     mixing beta               =       0.7000
     number of iterations used =            8  local-TF  mixing
     Exchange-correlation= BEEF-VDW
                           (   1   4  43  14   2   0   0)

     celldm(1)=  41.277001  celldm(2)=   0.000000  celldm(3)=   0.000000
     celldm(4)=   0.000000  celldm(5)=   0.000000  celldm(6)=   0.000000

     crystal axes: (cart. coord. in units of alat)
               a(1) = (   1.000000   0.000000   0.000000 )  
               a(2) = (   0.000000   0.974549   0.000000 )  
               a(3) = (   0.000000   0.000000   1.006955 )  

     reciprocal axes: (cart. coord. in units 2 pi/alat)
               b(1) = (  1.000000  0.000000  0.000000 )  
               b(2) = (  0.000000  1.026116  0.000000 )  
               b(3) = (  0.000000  0.000000  0.993093 )  


     PseudoPot. # 1 for C  read from file:
     /users/bkreitz1/quantum-espresso/potentials/C.pbe-n-kjpaw_psl.1.0.0.UPF
     MD5 check sum: a169b0ebad56f5ec0d79c4633f80bf22
     Pseudo is Projector augmented-wave + core cor, Zval =  4.0
     Generated using 'atomic' code by A. Dal Corso  v.6.7MaX
     Shape of augmentation charge: PSQ
     Using radial grid of 1073 points,  4 beta functions with: 
                l(1) =   0
                l(2) =   0
                l(3) =   1
                l(4) =   1
     Q(r) pseudized with 0 coefficients 


     PseudoPot. # 2 for H  read from file:
     /users/bkreitz1/quantum-espresso/potentials/H.pbe-kjpaw_psl.1.0.0.UPF
     MD5 check sum: ae98473e6dc62675f0d0baffdab24f65
     Pseudo is Projector augmented-wave, Zval =  1.0
     Generated using 'atomic' code by A. Dal Corso  v.6.7MaX
     Shape of augmentation charge: PSQ
     Using radial grid of  929 points,  2 beta functions with: 
                l(1) =   0
                l(2) =   0
     Q(r) pseudized with 0 coefficients 


     atomic species   valence    mass     pseudopotential
        C              4.00    12.01100     C ( 1.00)
        H              1.00     1.00800     H ( 1.00)

     No symmetry found



   Cartesian axes

     site n.     atom                  positions (alat units)
         1           C   tau(   1) = (   0.5000000   0.5157019   0.4579135  )
         2           C   tau(   2) = (   0.5000000   0.4588575   0.4578431  )
         3           C   tau(   3) = (   0.5000000   0.4871376   0.5221019  )
         4           H   tau(   4) = (   0.4581661   0.4871068   0.5493981  )
         5           H   tau(   5) = (   0.5418339   0.4871068   0.5493981  )

     number of k points=     1  Gaussian smearing, width (Ry)=  0.0050
                       cart. coord. in units 2pi/alat
        k(    1) = (   0.0000000   0.0000000   0.0000000), wk =   2.0000000

     Dense  grid:  2166765 G-vectors     FFT dimensions: ( 216, 200, 216)

     Estimated max dynamical RAM per process >       3.36 GB

     Initial potential from superposition of free atoms

     starting charge   13.99986, renormalised to   14.00000

     negative rho (up, down):  8.848E-03 0.000E+00


     %%%%%%%%%%%%%%%%%%%%%%%%%%%%%%%%%%%%%%%%%%%%%%%%%%%%%%%%%%%%%%%%%%%%%%%%
     %                                                                      %
     % You are using vdW-DF, which was implemented by the Thonhauser group. %
     % Please cite the following two papers that made this development      %
     % possible and the two reviews that describe the various versions:     %
     %                                                                      %
     %   T. Thonhauser et al., PRL 115, 136402 (2015).                      %
     %   T. Thonhauser et al., PRB 76, 125112 (2007).                       %
     %   K. Berland et al., Rep. Prog. Phys. 78, 066501 (2015).             %
     %   D.C. Langreth et al., J. Phys.: Condens. Matter 21, 084203 (2009). %
     %                                                                      %
     %                                                                      %
     % If you are calculating the stress with vdW-DF, please also cite:     %
     %                                                                      %
     %   R. Sabatini et al., J. Phys.: Condens. Matter 24, 424209 (2012).   %
     %                                                                      %
     %%%%%%%%%%%%%%%%%%%%%%%%%%%%%%%%%%%%%%%%%%%%%%%%%%%%%%%%%%%%%%%%%%%%%%%%


     Starting wfcs are   14 randomized atomic wfcs
     Checking if some PAW data can be deallocated... 

     total cpu time spent up to now is       67.1 secs

     Self-consistent Calculation

     iteration #  1     ecut=    60.00 Ry     beta= 0.70
     Davidson diagonalization with overlap
     ethr =  1.00E-02,  avg # of iterations =  3.0

     negative rho (up, down):  7.328E-03 0.000E+00

     total cpu time spent up to now is      101.6 secs

     total energy              =     -58.93619421 Ry
     estimated scf accuracy    <       0.58733040 Ry

     iteration #  2     ecut=    60.00 Ry     beta= 0.70
     Davidson diagonalization with overlap
     ethr =  4.20E-03,  avg # of iterations =  2.0

     negative rho (up, down):  4.983E-03 0.000E+00

     total cpu time spent up to now is      135.3 secs

     total energy              =     -58.85944230 Ry
     estimated scf accuracy    <       0.17049868 Ry

     iteration #  3     ecut=    60.00 Ry     beta= 0.70
     Davidson diagonalization with overlap
     ethr =  1.22E-03,  avg # of iterations =  6.0

     negative rho (up, down):  2.544E-03 0.000E+00

     total cpu time spent up to now is      171.4 secs

     total energy              =     -58.88880337 Ry
     estimated scf accuracy    <       0.01990551 Ry

     iteration #  4     ecut=    60.00 Ry     beta= 0.70
     Davidson diagonalization with overlap
     ethr =  1.42E-04,  avg # of iterations =  6.0

     negative rho (up, down):  1.787E-02 0.000E+00

     total cpu time spent up to now is      207.0 secs

     total energy              =     -58.88696473 Ry
     estimated scf accuracy    <       0.01167198 Ry

     iteration #  5     ecut=    60.00 Ry     beta= 0.70
     Davidson diagonalization with overlap
     ethr =  8.34E-05,  avg # of iterations =  5.0

     negative rho (up, down):  3.193E-02 0.000E+00

     total cpu time spent up to now is      242.9 secs

     total energy              =     -58.88640122 Ry
     estimated scf accuracy    <       0.00746436 Ry

     iteration #  6     ecut=    60.00 Ry     beta= 0.70
     Davidson diagonalization with overlap
     ethr =  5.33E-05,  avg # of iterations =  2.0

     negative rho (up, down):  7.864E-02 0.000E+00

     total cpu time spent up to now is      277.5 secs

     total energy              =     -58.88675068 Ry
     estimated scf accuracy    <       0.00373808 Ry

     iteration #  7     ecut=    60.00 Ry     beta= 0.70
     Davidson diagonalization with overlap
     ethr =  2.67E-05,  avg # of iterations =  5.0

     negative rho (up, down):  9.016E-02 0.000E+00

     total cpu time spent up to now is      314.2 secs

     total energy              =     -58.88736824 Ry
     estimated scf accuracy    <       0.00120212 Ry

     iteration #  8     ecut=    60.00 Ry     beta= 0.70
     Davidson diagonalization with overlap
     ethr =  8.59E-06,  avg # of iterations =  5.0

     negative rho (up, down):  7.303E-02 0.000E+00

     total cpu time spent up to now is      350.4 secs

     total energy              =     -58.88658843 Ry
     estimated scf accuracy    <       0.00064897 Ry

     iteration #  9     ecut=    60.00 Ry     beta= 0.70
     Davidson diagonalization with overlap
     ethr =  4.64E-06,  avg # of iterations =  9.0

     negative rho (up, down):  5.518E-02 0.000E+00

     total cpu time spent up to now is      388.0 secs

     total energy              =     -58.88621397 Ry
     estimated scf accuracy    <       0.00030065 Ry

     iteration # 10     ecut=    60.00 Ry     beta= 0.70
     Davidson diagonalization with overlap
     ethr =  2.15E-06,  avg # of iterations =  6.0

     negative rho (up, down):  3.395E-02 0.000E+00

     total cpu time spent up to now is      424.1 secs

     total energy              =     -58.88601943 Ry
     estimated scf accuracy    <       0.00009680 Ry

     iteration # 11     ecut=    60.00 Ry     beta= 0.70
     Davidson diagonalization with overlap
     ethr =  6.91E-07,  avg # of iterations = 10.0

     negative rho (up, down):  2.568E-02 0.000E+00

     total cpu time spent up to now is      465.9 secs

     total energy              =     -58.88606787 Ry
     estimated scf accuracy    <       0.00004367 Ry

     iteration # 12     ecut=    60.00 Ry     beta= 0.70
     Davidson diagonalization with overlap
     ethr =  3.12E-07,  avg # of iterations =  2.0

     negative rho (up, down):  2.061E-02 0.000E+00

     total cpu time spent up to now is      499.7 secs

     total energy              =     -58.88608354 Ry
     estimated scf accuracy    <       0.00001405 Ry

     iteration # 13     ecut=    60.00 Ry     beta= 0.70
     Davidson diagonalization with overlap
     ethr =  1.00E-07,  avg # of iterations =  2.0

     negative rho (up, down):  1.819E-02 0.000E+00

     total cpu time spent up to now is      533.9 secs

     total energy              =     -58.88609073 Ry
     estimated scf accuracy    <       0.00000686 Ry

     iteration # 14     ecut=    60.00 Ry     beta= 0.70
     Davidson diagonalization with overlap
     ethr =  4.90E-08,  avg # of iterations =  2.0

     negative rho (up, down):  1.629E-02 0.000E+00

     total cpu time spent up to now is      567.5 secs

     total energy              =     -58.88609741 Ry
     estimated scf accuracy    <       0.00000203 Ry

     iteration # 15     ecut=    60.00 Ry     beta= 0.70
     Davidson diagonalization with overlap
     ethr =  1.45E-08,  avg # of iterations =  2.0

     negative rho (up, down):  1.535E-02 0.000E+00

     total cpu time spent up to now is      593.5 secs

     End of self-consistent calculation

          k = 0.0000 0.0000 0.0000 (270867 PWs)   bands (ev):

   -22.8891 -16.5308 -12.4722 -11.1621 -10.7811  -6.9906  -6.7569  -5.6231
    -1.0124  -0.6155  -0.2619

     the Fermi energy is    -6.3282 ev

!    total energy              =     -58.88609785 Ry

     total all-electron energy =      -232.178381 Ry
     estimated scf accuracy    <       0.00000050 Ry
     smearing contrib. (-TS)   =      -0.00000000 Ry
     internal energy E=F+TS    =     -58.88609785 Ry

     The total energy is F=E-TS. E is the sum of the following terms:
     one-electron contribution =    -126.53372040 Ry
     hartree contribution      =      64.88336725 Ry
     xc contribution           =     -15.54090166 Ry
     ewald contribution        =      37.95633233 Ry
     one-center paw contrib.   =     -19.65117537 Ry

     convergence has been achieved in  15 iterations

     negative rho (up, down):  1.535E-02 0.000E+00

     Forces acting on atoms (cartesian axes, Ry/au):

     atom    1 type  1   force =     0.00000021    0.00090384   -0.00364378
     atom    2 type  1   force =    -0.00000035   -0.00081746   -0.00303241
     atom    3 type  1   force =     0.00000041    0.00005766    0.00196130
     atom    4 type  2   force =    -0.00020096   -0.00007197    0.00235745
     atom    5 type  2   force =     0.00020068   -0.00007207    0.00235744

     Total force =     0.006246     Total SCF correction =     0.000318

     negative rho (up, down):  1.535E-02 0.000E+00

     negative rho (up, down):  1.535E-02 0.000E+00

     negative rho (up, down):  1.535E-02 0.000E+00

     negative rho (up, down):  1.535E-02 0.000E+00

     negative rho (up, down):  1.535E-02 0.000E+00

     negative rho (up, down):  1.535E-02 0.000E+00

     negative rho (up, down):  1.535E-02 0.000E+00

     negative rho (up, down):  1.535E-02 0.000E+00

     negative rho (up, down):  1.535E-02 0.000E+00

     negative rho (up, down):  1.535E-02 0.000E+00

     negative rho (up, down):  1.535E-02 0.000E+00

     negative rho (up, down):  1.535E-02 0.000E+00

     negative rho (up, down):  1.535E-02 0.000E+00

     negative rho (up, down):  1.535E-02 0.000E+00

     negative rho (up, down):  1.535E-02 0.000E+00

     negative rho (up, down):  1.535E-02 0.000E+00

     negative rho (up, down):  1.535E-02 0.000E+00

     negative rho (up, down):  1.535E-02 0.000E+00

     negative rho (up, down):  1.535E-02 0.000E+00

     negative rho (up, down):  1.535E-02 0.000E+00

     negative rho (up, down):  1.535E-02 0.000E+00

     negative rho (up, down):  1.535E-02 0.000E+00

     negative rho (up, down):  1.535E-02 0.000E+00

     negative rho (up, down):  1.535E-02 0.000E+00

     negative rho (up, down):  1.535E-02 0.000E+00

     negative rho (up, down):  1.535E-02 0.000E+00

     negative rho (up, down):  1.535E-02 0.000E+00

     negative rho (up, down):  1.535E-02 0.000E+00

     negative rho (up, down):  1.535E-02 0.000E+00

     negative rho (up, down):  1.535E-02 0.000E+00

     negative rho (up, down):  1.535E-02 0.000E+00

     negative rho (up, down):  1.535E-02 0.000E+00

     negative rho (up, down):  1.535E-02 0.000E+00

     negative rho (up, down):  1.535E-02 0.000E+00
 BEEFens 2000 ensemble energies
             -0.118041754960692E+01
             -0.439422672413583E-01
             -0.230566229261984E+00
              0.806963830011957E+00
             -0.379575740912892E+00
             -0.270908588018886E+00
             -0.876779825474460E+00
             -0.177290153078263E+01
             -0.588724147791766E+00
             -0.654891864459294E+00
             -0.668913182002228E+00
              0.122994960011142E+00
              0.633660377965399E-01
             -0.113058088272202E+00
              0.721939392106594E-01
              0.857038973570598E+00
             -0.346282559701780E+00
             -0.145798156557369E+00
              0.455982657307812E+00
             -0.199943597728081E+01
              0.103192549146555E+01
             -0.340337212243858E+00
             -0.114357566777192E+00
             -0.157577965926721E+00
              0.672196424227494E-01
             -0.769853742308300E-01
              0.158811927738493E+01
             -0.462005037083742E+00
             -0.127889626476311E+00
             -0.103514565116429E+01
              0.121238340651151E+01
             -0.393732452372553E-01
             -0.761405662105167E+00
              0.306496151317972E+00
             -0.568864672633884E-01
              0.556094145477222E+00
              0.451700521211640E-01
             -0.255818334989821E-01
              0.720277571264919E+00
             -0.178698711443785E+01
              0.993812082003824E+00
              0.217805331375995E+00
             -0.255474606721882E+00
             -0.521677102168298E+00
              0.224042210155657E+00
             -0.344140669252302E+00
              0.938527185932497E+00
              0.635025231391264E+00
             -0.320290126951779E+00
             -0.589918642448220E+00
             -0.574261402963296E+00
             -0.682405458328402E+00
              0.430055294221823E+00
             -0.946977319850710E+00
              0.304302935620237E+00
              0.110665857426618E+01
              0.139568945323556E+01
              0.572776877194941E+00
              0.286037947486469E+00
              0.600383138355728E+00
              0.166256476248667E+01
              0.277945238847529E+00
             -0.995988354689189E+00
             -0.155491145254390E+00
             -0.543287878447821E+00
              0.112309298451232E+01
             -0.127463330020759E+01
             -0.106920639837705E+01
             -0.639690059578020E+00
             -0.381549257393972E+00
             -0.676291172087938E+00
              0.505567782304798E+00
              0.249151082336137E+00
              0.301051859947498E+00
             -0.701420535808226E+00
             -0.643705641711234E+00
             -0.108394903936605E+01
              0.554778138619254E+00
             -0.644775327431793E+00
              0.597173283112976E+00
             -0.162959819928408E+00
             -0.497493626129006E+00
             -0.885376972464058E+00
             -0.269176386096007E+00
             -0.313446510593691E+00
             -0.255915434419353E+00
              0.699090717648808E+00
              0.144415203851778E+01
             -0.840995303209482E+00
             -0.143155622384614E+01
             -0.323851668160281E+00
              0.196085395285710E+01
             -0.102215385012769E+01
              0.557358196396228E+00
             -0.216891889070610E+00
             -0.104583369678888E+01
              0.488560432389600E+00
              0.529302054012687E+00
             -0.277146440611201E+00
              0.507782897886216E+00
             -0.438016722905918E+00
             -0.113827838362358E+01
              0.185982183753191E+01
              0.832200845843865E+00
              0.355602876860383E+00
              0.233109619722923E+00
              0.451711775493432E+00
              0.145983733755667E+01
             -0.479909414930125E+00
              0.436243414710933E-01
             -0.249086020513858E+01
              0.302090888276102E+00
             -0.119127350706279E+01
              0.223660316557431E+00
              0.393422697765163E+00
             -0.680454424445019E+00
             -0.896371442544248E+00
              0.368935431775697E-01
             -0.566557342084321E+00
              0.827816064320358E+00
             -0.819734505725800E+00
             -0.177886111480484E+00
             -0.696516454209968E+00
             -0.595947839878690E-01
              0.986113284576700E-01
              0.441576114005975E+00
             -0.750891582157465E-05
             -0.100918214891753E+00
              0.122871585994520E+01
              0.167086425241413E+01
              0.909438508670941E+00
              0.114017789807456E+01
             -0.233247833840829E+00
              0.143182323780915E+00
              0.922193070082661E+00
              0.125053374047828E+00
             -0.138484979664509E+01
             -0.813427129380309E+00
             -0.885449843753697E+00
             -0.530372241021895E+00
              0.458431498336915E+00
             -0.221664913804113E+01
             -0.226656754911370E+00
              0.853148642250030E+00
             -0.724504741977603E+00
             -0.524307032262310E+00
              0.107556226493207E+01
              0.895701112138993E+00
             -0.512019174491957E+00
              0.644506111149295E+00
             -0.456426962415057E+00
              0.682515605119326E+00
              0.110857270305416E+00
              0.159845521499050E+00
             -0.147186624673517E+01
             -0.856935493303002E+00
             -0.149503380587793E+00
             -0.778590280018002E-01
             -0.776574628069955E+00
              0.203321505888000E+01
             -0.186554914222516E+00
             -0.472262068301578E+00
              0.692737635225509E+00
             -0.794255607022235E+00
             -0.695502010554808E+00
              0.598280360439407E+00
              0.231487157092802E+00
              0.187321655515055E+00
              0.316915352372301E+00
             -0.192058088394339E+00
              0.156278548968087E+00
              0.104645664677696E+01
             -0.469116103783670E+00
              0.406802801943434E+00
              0.160539024667849E+01
              0.580183063130958E+00
             -0.687443468736024E-01
             -0.390625182115763E+00
              0.282640081719955E+01
             -0.475542817677255E+00
              0.720796036253859E+00
              0.579118217326926E+00
              0.475510242420680E+00
              0.167962975308414E+01
              0.824037900127115E+00
             -0.893784372579601E-01
              0.472102610481620E+00
              0.961548620521308E+00
              0.694191634879431E+00
             -0.112096887512188E+01
              0.171768254308878E+01
             -0.155473246072340E+01
             -0.173422194014503E+00
              0.100697784207243E+01
              0.349721935166856E+00
              0.114028059557878E+00
              0.469938384817737E+00
              0.271895032905959E+00
              0.580662696177600E+00
             -0.113401916992058E+01
              0.656137395435739E-01
             -0.417683576563686E+00
             -0.996025933410889E-01
             -0.723918504606686E-01
             -0.254830593761039E+00
             -0.122589817639389E+00
              0.149789075341041E+01
             -0.836464065462579E-01
             -0.513464900662874E+00
             -0.138002029957860E-01
              0.260063561552131E+00
             -0.117837048391410E+01
             -0.105137044050767E+01
             -0.607348660316425E+00
             -0.115061320888139E+01
             -0.349430581289280E+00
             -0.725297134389900E+00
              0.325922407810335E+00
              0.486567077481865E-01
             -0.237832094923720E+00
             -0.141251810526783E+00
              0.835255681708360E-01
             -0.204813171384974E+00
              0.118562639294059E+01
             -0.161216316829543E+01
             -0.246612804841759E+00
             -0.227235798543623E+00
              0.266976789615684E+00
              0.418257408325308E+00
             -0.937154950139146E+00
             -0.213373979196967E+00
              0.806294377275719E+00
             -0.330925354820417E+00
              0.245523006464983E+00
              0.590730841119022E+00
             -0.199489622742970E-01
              0.208397032873803E+01
             -0.169663937150002E+00
             -0.618266414857956E+00
             -0.109981065669027E-01
             -0.519317735668237E+00
              0.990895920495052E+00
             -0.908806221014511E+00
              0.263572178117945E+00
              0.875270722486646E+00
             -0.221197097257694E+00
              0.214191734347782E+01
              0.231789745666570E+01
             -0.128669056102587E+01
              0.105145637324237E+01
              0.451824648710087E+00
             -0.103322264488759E+01
              0.300604085984934E+00
              0.806945371340253E+00
              0.867627127776683E+00
              0.809822846373480E-01
              0.345674358111408E+00
              0.137237733030140E+01
             -0.421431307054899E+00
              0.163281531029112E+00
              0.120245734425465E+01
             -0.647416722627928E+00
             -0.463363097784207E+00
              0.110032446182925E+01
              0.556780084567789E+00
              0.138882344520315E+01
              0.641499846778593E+00
              0.261608965732265E+00
              0.441889814321041E+00
              0.781668450139306E+00
             -0.987997182784347E+00
              0.152666792905426E+00
              0.551064505923041E+00
              0.206672060764099E+00
              0.451243853595118E+00
             -0.114190745994566E+01
              0.576106980918203E+00
             -0.782564107867428E+00
             -0.567576414315740E+00
              0.377127724400215E+00
             -0.134098499441013E+00
              0.111399686832219E+01
             -0.221755563212898E+00
              0.544877164228939E+00
              0.541779961085998E+00
              0.138887711047941E+01
              0.941341676963047E+00
              0.931459764813410E+00
             -0.907842367520839E-02
             -0.230712384447058E+00
             -0.531313188868808E+00
              0.151120515962539E+01
              0.149941248770125E+01
              0.725796694314848E+00
             -0.534590193483565E+00
              0.894138273343022E+00
              0.375218414009932E-01
              0.286059196872963E+00
              0.127480752631193E+01
             -0.459416915574709E-01
             -0.171416100989891E+00
             -0.355074622486436E+00
             -0.114573323949857E+01
              0.176312771738038E+01
              0.962115418581688E+00
             -0.119513881572509E+01
             -0.415577147429022E+00
              0.447907524453826E+00
             -0.180268127751670E+00
              0.120499856124723E+01
              0.270855273208673E+00
              0.148496297475739E+01
              0.588211298053897E+00
             -0.407103396605658E+00
              0.315950085369889E+00
             -0.129934731604226E+00
             -0.443388161160224E+00
              0.316731125699828E+00
              0.273848065058596E+00
              0.166045633521514E+01
              0.138684438963425E+01
              0.104667070019232E+01
              0.120370175379738E+01
              0.127469096381502E+00
             -0.464551119617351E+00
              0.245377035242289E+00
             -0.588228577578946E+00
             -0.104797495797359E+01
             -0.101415776108870E+01
             -0.591804117972014E+00
             -0.196149491461920E+01
             -0.701153879335508E+00
             -0.158251726476067E+01
              0.394764682097542E+00
             -0.809573059415630E+00
              0.949905799994421E+00
             -0.181586976425486E+01
             -0.544839996363393E+00
              0.666672800206287E+00
              0.398261838738947E+00
             -0.167542223913565E+01
              0.949595590770047E+00
             -0.514888550794229E+00
              0.100754554939340E+01
             -0.474833258750715E+00
             -0.143371941343120E+01
              0.317266491643627E+00
             -0.120073617387781E+01
             -0.255979001265034E-01
             -0.358158920875125E-01
              0.740095778487274E+00
              0.229097178312824E+01
             -0.773133842047885E+00
             -0.679042103152401E+00
             -0.131051201908331E+00
             -0.130360105779341E+00
             -0.145779111431863E+01
             -0.101508245539128E+01
              0.892985886394397E+00
             -0.306525318755553E+00
              0.429473512542685E+00
             -0.891712457408700E+00
             -0.301807523475597E+00
             -0.750362316266712E+00
              0.873380545486828E+00
              0.208417195159745E+00
             -0.447647267803339E+00
             -0.343588294508335E+00
              0.257501368788443E+00
             -0.129373805405385E+00
              0.721787906546414E+00
             -0.481471349432635E+00
              0.228583397459781E+00
              0.631021478345073E+00
              0.215727777425078E+00
             -0.449397336716955E+00
              0.281576270466817E+01
              0.110047735140572E+01
              0.187515293481681E+00
              0.108381680361056E+00
             -0.110359605157456E+01
              0.612156812318244E+00
             -0.144204763072594E+01
             -0.636183944820689E+00
             -0.110008136233480E+01
             -0.333289618328266E+00
              0.108745719905680E+01
             -0.106411872829415E+01
              0.506454661448211E+00
             -0.849152442372629E-01
              0.171139436614611E-01
             -0.553036421033920E+00
             -0.752505089359918E+00
             -0.132852172664588E+00
             -0.574664787149748E+00
             -0.393724385845985E+00
             -0.721121936958382E+00
             -0.915075349945979E-01
             -0.576588750794387E+00
             -0.878402625382671E+00
              0.371048341575542E+00
             -0.194948307936971E+00
              0.455909066539578E+00
              0.146060514419655E+00
             -0.138870370835651E+01
             -0.915495361417355E+00
             -0.934392525146269E+00
              0.558671252093852E+00
             -0.135515168919419E+00
             -0.110840034694307E+01
              0.104032939149367E+01
             -0.769450941097338E+00
              0.109087461929995E+01
             -0.574292883081766E+00
             -0.895022175599916E+00
              0.433426370113040E+00
             -0.132683609078119E+01
             -0.564195462617868E+00
              0.104663547217938E+01
              0.368140252193259E+00
             -0.818452245236275E+00
              0.102483482460583E+01
             -0.293209768785900E+00
             -0.690505295282120E+00
             -0.538792774996976E+00
             -0.953290783951124E+00
              0.481211167952515E+00
             -0.158395728736185E+01
             -0.137323497980640E+01
             -0.151523497010068E+00
             -0.532088459898074E+00
             -0.110810889320394E+01
              0.140042460483146E+01
              0.252546324507521E+01
             -0.370447656980300E+00
             -0.792326637266898E-01
             -0.108213493327796E+01
              0.121938496955656E+01
              0.399333143366682E+00
             -0.389397195287266E+00
             -0.650467846532848E+00
              0.265075572421121E+00
             -0.107811776408815E+01
             -0.203249536074931E+00
             -0.155097259060592E+01
              0.620195048098235E+00
              0.185000482601220E+00
             -0.104238717895438E+00
             -0.232377312079540E+00
             -0.782377808881677E+00
             -0.256701435977513E+00
              0.250519625209694E+01
             -0.289277946663161E+00
             -0.898475048702138E+00
             -0.127340548365024E+01
              0.262416614315744E+00
             -0.711832404484965E+00
              0.195657508689589E+00
              0.614316648803977E+00
              0.887200610283898E-01
              0.660335954469494E+00
              0.336834976351554E+00
              0.106875265234074E+01
              0.438788857857713E+00
             -0.675954389466162E+00
              0.102673818912452E+01
              0.617282071713615E+00
              0.227375361260929E+00
              0.662682764223355E+00
             -0.596608849727954E+00
              0.129677056779037E+01
              0.493004903156827E+00
             -0.642119423690543E+00
             -0.928520928718086E-01
             -0.304617192088095E+00
              0.276784766727228E+00
             -0.455708413013444E+00
             -0.236105200729875E+00
             -0.238323952449086E+00
              0.148922686280696E+01
              0.107175714225436E+01
             -0.115430096586073E+01
             -0.154860735664522E+00
             -0.901688195928037E+00
             -0.241758377634824E+00
             -0.375045025487591E+00
              0.211716865380795E+00
             -0.568326133610323E-01
             -0.528787786123074E+00
              0.338092959180787E+00
             -0.171686541574680E+00
             -0.115147369130916E+00
              0.159719364081976E+01
              0.261934790562752E+00
             -0.154307131397920E+01
             -0.687492761489626E+00
              0.176597849693760E+01
              0.432332910095388E+00
             -0.152359383757462E+00
              0.200967858685028E+01
             -0.290688034096778E+00
             -0.140884441706510E+00
             -0.224248953895737E+00
              0.292607838032818E+00
              0.624107018603228E+00
              0.398603029488587E-01
              0.513440149056326E+00
             -0.196301451487928E+00
             -0.740623806150684E+00
             -0.726065515197582E+00
             -0.874896624089272E+00
              0.734230182555100E+00
              0.263143366110368E+00
              0.686748135217684E+00
              0.291204717511786E+00
              0.166087458845469E+01
              0.376254758075266E+00
             -0.141224546834364E+01
             -0.605358456925026E+00
              0.331944531682833E-01
             -0.507736968577639E+00
              0.116781647805495E+01
             -0.288359423611247E+00
              0.314253647781919E+00
              0.101736798894613E+01
             -0.148680333735475E+01
              0.269524152402474E+01
              0.359783188772457E+00
              0.437831653733852E+00
              0.697890538633614E+00
              0.492029824074294E-01
             -0.335434753147190E-01
              0.586404583901389E+00
             -0.641120554495650E+00
              0.160319637218943E+01
              0.139578804855836E+01
             -0.715662028148156E+00
              0.299673390185054E+00
              0.132096194160581E+01
             -0.387406218848274E+00
              0.386416514119159E+00
              0.590571317691564E+00
              0.750729504891260E+00
             -0.135271166586189E+01
             -0.972887040956056E-01
             -0.471103125238369E+00
             -0.104620116882619E+00
             -0.125572020871710E+00
              0.141781813091097E+00
             -0.221304387165572E+00
             -0.557695145495490E+00
              0.314964022987369E+00
              0.102256346303821E+00
              0.969793857736862E+00
             -0.857900863849488E+00
              0.852423312535317E+00
              0.926124771064488E+00
             -0.145334934684247E+00
              0.136106170509620E+01
             -0.123204112344142E+01
             -0.189554229392701E+01
             -0.160335942258148E+00
             -0.133559873481211E+00
             -0.168052996671477E-01
              0.143692399152366E+01
             -0.774289033369691E-02
              0.785593883726660E+00
              0.110081830907486E+01
              0.717977148926229E+00
             -0.130019494913345E+00
              0.107788084812304E+01
             -0.312155164510285E+00
             -0.718376598808605E+00
             -0.633979468298767E+00
              0.198752094094100E+00
              0.627038910375194E+00
             -0.402187603682527E-01
              0.606849889411204E+00
              0.120311789402550E-02
              0.101330055216125E+01
              0.293731419062671E+00
              0.150131649643316E+00
              0.294012091023284E-01
              0.536522655178035E+00
              0.750501870953330E+00
              0.262016580079914E+00
             -0.655693254622838E-01
             -0.995001793980075E+00
              0.558972962595628E+00
              0.384492707521479E+00
              0.592910082061566E+00
              0.546006738524622E+00
              0.668076792207100E+00
             -0.172584839312743E+00
              0.633428843694806E+00
             -0.538533776744501E+00
             -0.241338006510379E-01
             -0.962169373323048E+00
             -0.636728706460251E+00
              0.789603841261322E+00
             -0.160746780197411E+01
              0.434309078178207E+00
              0.253677182510833E+00
              0.158132830422744E+01
             -0.218021915478674E+00
              0.603920230718885E+00
             -0.208857957407442E+00
             -0.915010804201736E+00
             -0.119149656777884E+01
             -0.289398336153884E+00
             -0.166296868686141E+01
              0.139209091408041E+00
             -0.369649666099254E+00
              0.599811844258601E+00
              0.455311570622397E+00
             -0.533996719675025E+00
             -0.553667401408955E+00
              0.784605868484049E+00
             -0.105829310976695E+01
             -0.253648376823386E+00
             -0.301769653706642E+00
              0.504715257174616E+00
              0.105980236496421E+00
              0.747666627821975E-01
             -0.274445681888030E+00
              0.986171944909547E+00
             -0.111802246168381E+01
              0.120358470472130E+00
              0.110554529172563E+01
             -0.677803227514413E+00
              0.686361941784788E-01
              0.448110539221656E-01
             -0.118203311091747E+01
             -0.684311473090165E+00
             -0.244735265894702E-01
              0.578132165113824E+00
              0.648030694461303E+00
              0.777531385543613E-01
             -0.232603991225945E+00
              0.317702693424659E+00
             -0.734478168771858E+00
             -0.939172999422571E-01
             -0.957967654331707E+00
             -0.484245430984449E+00
              0.922318342237507E+00
             -0.556592761650339E+00
              0.129178696589629E+01
             -0.433663978165537E+00
              0.601226021433312E+00
              0.466715216890709E+00
             -0.109401518551079E+01
             -0.456782158405747E+00
              0.187236460103833E+00
             -0.785287105973740E+00
             -0.756496612729224E+00
             -0.164966352581561E+01
             -0.101078478242264E+01
             -0.907737236994954E+00
             -0.829487509494136E+00
              0.581844287191657E-02
              0.462561086640144E+00
              0.216121018643893E+00
              0.523070834874091E+00
             -0.107743816847116E+01
              0.243602069747743E+00
              0.526556220323551E+00
             -0.125553060740956E+01
             -0.103564167270956E+01
             -0.720634378499120E+00
             -0.618304468278553E+00
              0.259163491893153E+00
             -0.626706542356530E-01
             -0.763214371255029E+00
              0.502820897993411E+00
             -0.428788540796943E+00
              0.953360015359247E+00
             -0.162154689101036E+01
              0.118429506122884E+01
             -0.227941466115217E+00
             -0.802544852440599E+00
             -0.508621273039636E+00
             -0.211189939985665E-01
              0.907072519077326E+00
             -0.127563630529544E+01
             -0.235332376945496E+00
             -0.304908705663105E+00
              0.743467205937113E+00
              0.146831907163491E+01
             -0.184582963434311E+01
              0.168065596978932E+01
              0.696615057076576E+00
             -0.140056454309921E+01
             -0.566632714582402E+00
              0.145345745470522E+01
              0.103719921140778E+01
             -0.383111084331341E+00
             -0.128781079343165E+00
              0.339729087320180E+00
              0.143977602722812E+01
             -0.109426546016772E+01
              0.229329396165753E+00
             -0.148653695053450E+00
              0.467173514503749E+00
             -0.128850518694691E+01
             -0.455613909989573E-01
             -0.481791024664743E+00
              0.889339907172481E+00
              0.693613356682679E+00
             -0.163978429931944E+01
             -0.865666640802067E+00
             -0.373721958214313E+00
             -0.819465094151648E+00
             -0.231058510874773E+00
             -0.314758069872454E+00
              0.839129585435437E+00
              0.792382610174035E+00
             -0.203696658431998E-01
             -0.821853661636609E+00
             -0.158022072570767E+01
              0.938489686211767E+00
             -0.840483497756527E+00
             -0.693076877612096E+00
              0.134234854442516E+00
             -0.694038943751820E+00
             -0.742688848784412E+00
             -0.574293892050194E+00
             -0.947208183834803E+00
             -0.437277169262397E+00
             -0.914000547984963E+00
              0.100339842874127E+01
              0.106680223205293E+01
             -0.207268009044798E+00
             -0.370087490474438E+00
              0.683377739074373E-01
              0.771378045735347E+00
             -0.154729591324614E+01
             -0.434355324163098E+00
              0.907102142304142E+00
              0.132587960423750E+01
             -0.174272395421704E+00
              0.183005677854169E+00
              0.971822963279648E+00
              0.269226634975135E+00
              0.378605029670194E-01
             -0.716842894449043E+00
              0.252503620382431E+00
             -0.593645218543783E+00
             -0.122172460770084E+00
             -0.398171329621475E+00
             -0.255717662618173E+00
              0.452576720921451E+00
              0.144337294592651E+01
             -0.133993955170804E+00
              0.308708523637740E-01
             -0.167830287435891E+01
             -0.325274910763660E+00
             -0.655099320766005E+00
             -0.230217796885555E-01
             -0.885688179597923E+00
              0.167177289621045E+01
              0.159362955705570E+01
              0.336604946432312E+00
             -0.430573905961692E+00
              0.343133455195172E+00
              0.363604767510669E+00
             -0.847906040821744E+00
             -0.175778852635315E+00
              0.367773581781490E+00
              0.217903332468113E+00
              0.934706193399514E+00
              0.712916299937384E+00
             -0.381518666459661E+00
              0.380875579439075E+00
             -0.178423326943199E+01
             -0.299651170484312E-01
              0.165027008632674E+01
              0.338753868258410E+00
             -0.580481605292142E-01
              0.488657348294784E+00
             -0.444375278132837E+00
              0.158797462593717E+01
             -0.375324014618929E+00
              0.141146989958098E+01
              0.702210825705506E+00
             -0.813006089476497E+00
              0.610807752178116E+00
             -0.513220005061816E+00
             -0.124711293213806E+01
             -0.142372188481832E+00
             -0.994139274260081E+00
             -0.953147413275984E+00
             -0.296430806551298E-01
              0.697048875608560E+00
             -0.263579027685171E+00
             -0.553221063909680E+00
              0.131736406999308E+00
             -0.119911001731780E+01
             -0.602572988238983E-01
             -0.159605847331579E+01
              0.955103651986845E+00
             -0.746159961818247E-01
             -0.900624369255232E+00
             -0.276253401679040E+00
              0.320361400444927E+00
             -0.705674956475368E+00
             -0.812706468313677E+00
              0.168051650064311E+01
             -0.515396239375485E+00
             -0.677875415106215E+00
              0.588871083978120E+00
             -0.406563679475674E+00
              0.106117101149831E+01
             -0.426505910598358E-01
              0.486336459732666E-01
              0.202290508102660E+01
             -0.148605413256595E+00
             -0.705783763136131E+00
             -0.878345268696599E+00
             -0.934849523084885E+00
             -0.688154464426079E+00
              0.541039824043203E+00
              0.572737976823692E+00
              0.515011054245395E+00
              0.136964724534908E+01
              0.111063301221700E+00
              0.421048395878588E+00
             -0.105506865113091E+01
              0.409175894774183E-01
             -0.277849607180566E+00
             -0.502058334984001E+00
             -0.137948705901472E+00
              0.606032726348959E+00
              0.700679194269824E+00
             -0.449235921417163E-01
              0.250356666629159E+00
              0.496196885258730E+00
              0.622706504367186E+00
             -0.443147264299131E+00
             -0.179128188378490E+00
              0.618175552970346E-02
             -0.479860489159950E+00
             -0.492696437150446E-01
             -0.743250779524811E+00
              0.145677071017941E+01
              0.113297257458746E+01
             -0.334490974021412E+00
              0.304009056413532E+00
             -0.106454423740862E+00
             -0.586468736135962E+00
              0.689177741741468E+00
             -0.170296193279780E+00
              0.682976405188688E+00
             -0.873884418899409E+00
              0.330716586363316E+00
             -0.145638776163040E+00
             -0.988708102921624E+00
             -0.443822152305376E+00
              0.444209780657884E+00
             -0.179099723824955E+01
              0.709473071051416E+00
              0.858331292323942E+00
             -0.184311198828264E+00
             -0.140570264674037E+00
             -0.760743692353154E-01
              0.497713956264720E+00
             -0.627035438847664E+00
              0.562165794199609E+00
              0.592353150110940E+00
             -0.164848404040555E+01
             -0.681941984733329E+00
              0.440568822597150E+00
             -0.229129397422327E+00
              0.904180607974556E+00
             -0.113737488571329E+01
             -0.191637610991284E+00
             -0.733243593582296E+00
             -0.239527375486008E+01
              0.144815830239120E+01
             -0.109629431875384E+01
             -0.123210921041728E+01
              0.109314404312518E+00
              0.236681471486348E+01
              0.130540320724500E+00
             -0.596889928608249E+00
             -0.250915043681266E-01
             -0.730405066630606E-01
             -0.157268176520655E+01
             -0.100536561801466E+01
              0.156596879192409E+01
             -0.221136567778299E+00
             -0.662895694390578E+00
              0.886068829201593E+00
             -0.600563434356969E+00
              0.611617214065815E+00
              0.887180375610077E+00
             -0.971247246461159E+00
             -0.515875040854075E+00
             -0.590925634465925E+00
             -0.325432868991525E+00
             -0.351938731548018E+00
             -0.339082446734281E+00
              0.370713295990456E+00
             -0.653778591066221E+00
              0.508325556675542E+00
              0.100392114307977E+01
             -0.122725925920214E+00
             -0.387594474949974E+00
              0.282353564336778E+00
              0.101107816498522E+01
              0.101342796988521E+01
              0.201291830726878E+00
             -0.195815482705390E+00
             -0.205876299489728E+00
             -0.981198251928477E+00
              0.745528259309436E+00
             -0.450131213240345E+00
              0.424718724339712E+00
             -0.239998456066841E+00
              0.473366867619270E+00
              0.322250130529264E+00
             -0.149757585857696E+01
             -0.459616715480186E+00
             -0.144696557826918E+01
             -0.740889369686908E+00
              0.786493419454151E-01
             -0.367697534008506E+00
              0.649515007459507E+00
             -0.524743676789593E+00
              0.659020765871849E-01
              0.131682810888006E+00
              0.128712340295135E+01
              0.655358718710175E+00
             -0.601333031546982E+00
             -0.384097108656207E-01
              0.275226968956729E+00
              0.685037847127321E+00
             -0.144729897947125E-01
              0.103634597650097E+01
              0.497570680632297E+00
              0.165966488601251E+01
              0.616926724441396E-01
              0.113251723460593E+01
             -0.511728741805695E+00
             -0.719473400995129E+00
              0.357213736240416E-01
              0.200144276079286E+00
              0.419315269636120E+00
             -0.378643305631048E+00
             -0.204031948090832E+00
              0.434063604641255E+00
             -0.868927016894460E+00
             -0.110712736141656E+01
              0.147081844350770E+01
             -0.113142734486379E+00
             -0.665371960764706E+00
             -0.941384933807707E-01
             -0.257459634564391E+00
              0.813177651312295E+00
              0.668409907527183E+00
             -0.373899104624835E+00
              0.519795273255230E-02
             -0.467287088196460E+00
             -0.650756112451550E+00
             -0.441610385696318E+00
             -0.180299405151718E+01
              0.285054522591919E-01
             -0.117163092189119E+01
             -0.108856205485934E+01
             -0.678571103902371E+00
              0.418132210128318E+00
             -0.707157945996185E+00
              0.451544290680353E+00
             -0.118957265279554E+01
             -0.360386791946521E-02
             -0.781115054282229E+00
              0.153758000364923E+00
              0.150051582733260E+00
              0.647530788887251E+00
             -0.381239688255218E+00
             -0.332510143673199E+00
              0.583951924244646E+00
              0.108564582806083E+01
              0.599043230633636E+00
              0.207124033231837E+00
             -0.136943115547397E+01
             -0.291663286382075E+00
             -0.509587992563233E+00
             -0.112846989731059E+01
              0.783592647533380E+00
             -0.633951667976029E+00
             -0.140005016179491E+00
             -0.503299510739053E+00
             -0.182079264190406E+01
              0.102555045939179E+01
             -0.336278355984517E+00
              0.706931746708691E+00
             -0.136168647014759E+01
              0.120142309589132E+01
              0.115487140878966E+00
             -0.469108953059266E+00
              0.193638232941906E+00
             -0.365729950241009E+00
             -0.114057125931068E+01
              0.314238875754944E+00
              0.722717157925669E+00
             -0.280151967143460E-01
             -0.633319065554124E+00
             -0.293345069792929E+00
              0.379166145605151E+00
              0.683635938032270E+00
              0.113155706714238E+01
              0.409316154616503E+00
             -0.426726469515804E+00
              0.184841943548223E+01
              0.396351075523005E+00
              0.874159342446027E+00
             -0.310639777552524E+00
              0.538469425474757E+00
              0.443613470346555E+00
             -0.112645526267034E+01
             -0.410035041394972E+00
             -0.744899573105030E+00
             -0.765185092246899E+00
             -0.223947951610625E+00
             -0.156282631671850E+00
             -0.852708011313129E+00
             -0.202914737020266E+01
             -0.497632147442660E+00
              0.248886562922458E+00
              0.117630122427951E+00
              0.294498338716320E+00
              0.748664813658737E+00
              0.195858660831812E+00
              0.579008986563809E+00
             -0.791038256017162E+00
              0.786520771927213E+00
             -0.730360300600764E+00
             -0.123441185450710E+01
              0.377687183232977E+00
             -0.782984833127773E+00
             -0.731745174403831E+00
             -0.292606683481892E+01
             -0.133576607399960E+00
              0.155235376127352E+01
              0.739263987282409E+00
             -0.183521851310687E+00
             -0.195761402959129E+00
              0.815529559930784E+00
              0.117583309729233E+01
             -0.710042160443641E+00
             -0.239199777142488E+00
             -0.671525114437756E+00
             -0.612334869897674E+00
             -0.541896163203697E+00
              0.193015666097029E+00
              0.127121735576366E+01
             -0.118651346561445E+01
             -0.998928900267186E+00
              0.731352312019853E-01
             -0.273444909219266E+00
             -0.311784200866040E+00
             -0.164061726442797E+01
              0.115886684198833E+01
              0.359592210077755E+00
              0.180454301969877E+00
              0.958643857404028E+00
             -0.606392306320029E+00
              0.616564658508463E+00
              0.527943015465278E+00
              0.193024931278210E-01
             -0.145663380990173E+00
              0.150002253226043E+00
             -0.291401019673407E+00
              0.979247362816428E+00
             -0.730213023979262E+00
              0.862315336205579E+00
              0.162199796577631E+00
              0.309499572923632E+00
              0.366151323101084E+00
             -0.149597726564163E+01
              0.188726774391270E+00
             -0.121592129102710E+01
             -0.879512283132752E+00
             -0.868636523582735E+00
             -0.968198099598225E+00
             -0.288259967750726E-02
              0.350588761496403E+00
              0.916871755843457E+00
              0.134076349681875E+00
              0.270779835924732E+00
             -0.127125362368762E+01
             -0.512304123844077E+00
              0.584374983601891E+00
             -0.803676951043002E-01
             -0.662017178057188E-01
             -0.174435672868066E+00
              0.659341311094928E+00
             -0.166215782266472E+01
              0.245176921914954E+00
              0.373836405198462E+00
              0.720490716646808E+00
              0.679743289468427E+00
             -0.103744119514923E+01
              0.287867541069545E+00
              0.119896990833685E+00
              0.120219895886382E+00
              0.112990992724032E+00
             -0.352378106396600E+00
             -0.799019321357624E+00
              0.326336859151023E+00
              0.107023638683137E+01
             -0.122171112674625E-01
              0.253596668422748E+00
              0.234375733094442E+00
             -0.566523576679053E+00
             -0.607685440259967E+00
             -0.225362786974989E+01
             -0.687184281762780E+00
             -0.107726733726434E+01
             -0.109833433923773E+00
             -0.125097416217704E+01
              0.138090550576041E+01
             -0.618735678290260E+00
             -0.101052058611306E+01
             -0.287308126802040E+01
              0.122590029816260E+01
              0.275376923775921E+00
              0.203093436865901E+00
             -0.111819984330497E+01
              0.719305591075461E-01
             -0.303506883383911E+00
             -0.568272102539137E+00
              0.166111728070747E+00
              0.593540201717009E+00
              0.882525828451592E-01
             -0.383318190250076E+00
              0.713073560977957E-01
              0.233053999187742E-01
              0.196214593183193E+00
             -0.121798377256386E+01
              0.134944795732409E+01
             -0.764623507341108E+00
             -0.483152639400818E+00
             -0.954650314906006E+00
             -0.201096213962364E+01
              0.880014598652572E-01
             -0.106113161035770E+01
             -0.326594166667897E+00
              0.560716626482355E+00
             -0.499217360999815E+00
             -0.213119459106352E+00
             -0.239975525138203E+00
             -0.355166788069871E+00
              0.698346175016024E-01
              0.943693457977167E+00
             -0.912221788639243E+00
              0.190980806481709E+01
             -0.463920728828185E+00
              0.586607857479359E+00
             -0.343620262946152E+00
              0.215411623942499E+00
             -0.222872090882126E+00
              0.814295408719852E+00
              0.114639137982171E+01
              0.336007672969656E+00
              0.797989199938864E+00
             -0.537363978432837E+00
             -0.140010648667057E+00
             -0.428481378465788E+00
              0.117044718868953E+01
              0.100859287687420E+01
              0.733675882759258E+00
             -0.225791410058314E+00
             -0.472527261182653E+00
              0.447777209229854E+00
             -0.539033239637800E+00
             -0.272096641267263E+00
             -0.103591352514448E+00
             -0.652118845689948E+00
              0.897425691752076E+00
             -0.202768058484275E+00
              0.668919910995713E+00
              0.412235552807308E+00
              0.270454881642747E+00
             -0.624071068282696E+00
              0.455093716294143E+00
             -0.260792552780899E+00
             -0.127327096164007E+00
             -0.188348457490592E-01
             -0.874473224035238E+00
              0.141749490569245E+01
             -0.488512853047401E+00
             -0.731179362054135E-02
              0.453881183829536E+00
              0.378318848463532E+00
              0.141435474569714E+01
             -0.395419842236632E+00
              0.137363109209667E+01
              0.122003808404668E+01
             -0.170224408582430E+01
              0.129142984531118E+00
             -0.341221512740332E+00
              0.232665895789606E+00
              0.850318157430983E-01
              0.403777703254161E+00
              0.117905090706148E+01
              0.184352571983136E+01
             -0.133656042151831E+01
              0.139615990754268E+01
             -0.184833916820629E+01
             -0.158757586202948E+01
             -0.274327360221585E+00
              0.114857217340743E-01
              0.144277678143978E+01
              0.589029668028955E+00
             -0.243531492595954E+00
             -0.151757750831691E+01
              0.123062103369870E+01
             -0.739784322779411E+00
              0.237697474594967E-01
             -0.962418404325245E-01
              0.237443640523150E+01
             -0.409505291068450E+00
             -0.193083952374418E+01
              0.556209937971753E+00
             -0.298218097804931E+01
              0.231273802480417E+00
             -0.706725790087838E+00
             -0.325172560230705E+00
             -0.479148028070583E+00
             -0.109904006234544E+01
              0.674466695433980E+00
             -0.676721490899973E+00
             -0.259324735245732E+00
             -0.138173429698765E+01
             -0.748429559520094E-01
             -0.993599817020899E+00
             -0.142336149377187E+01
             -0.192806629302258E+01
              0.137372054373012E+00
             -0.688398421743244E+00
              0.199591988307374E+00
             -0.257161281353827E+00
             -0.152372398534821E+01
             -0.117946874677913E+01
             -0.103744035059838E+01
             -0.108352697982806E+01
              0.956458067983097E+00
              0.990707415196392E-01
             -0.919809753768989E+00
             -0.456074172265888E+00
             -0.509170935465880E+00
              0.769588339457295E+00
             -0.563963852884253E+00
             -0.765283502053259E-01
             -0.585940242053947E+00
             -0.723645957734628E+00
             -0.769136789909048E+00
              0.743143828306879E+00
             -0.238668375858568E+00
             -0.170045616771009E+01
              0.141659112482113E+01
              0.827590847185284E+00
              0.520266941301104E-01
             -0.149380898605103E+01
             -0.136581777609311E+01
              0.847223490063591E-01
              0.825514201017707E-02
             -0.612308762877595E+00
             -0.797270226216207E+00
              0.544075057312782E+00
             -0.901969713933468E-01
              0.499964886458637E+00
              0.882803487174378E+00
              0.636055746432545E+00
              0.460128389970481E+00
              0.399077179863864E+00
             -0.410415595664045E+00
             -0.283415860214114E+00
             -0.347119193130545E+00
             -0.708915384626650E+00
             -0.858121716826087E+00
             -0.110151995307059E+01
             -0.659742065771523E+00
             -0.237126532156615E+00
             -0.135405704122996E+01
             -0.324413002680032E+00
              0.663142204913217E+00
             -0.155870774534108E+01
              0.677098875074928E+00
              0.543459999969966E+00
             -0.134230360476577E+01
             -0.102516664429279E+01
             -0.423704234669045E+00
              0.225306924208443E+00
             -0.764888088770140E+00
              0.138525867974022E+01
              0.122989322110649E+01
             -0.141585951467676E+01
              0.756615734855906E+00
              0.665082961836432E+00
              0.174564770306699E+00
              0.352464827694838E+00
             -0.783781208254407E+00
             -0.285410828991100E+00
              0.122992553981872E+00
              0.378018588424546E+00
              0.754162258345569E+00
             -0.981622225251608E+00
             -0.207072354299522E+00
              0.294159692921583E+00
              0.200005131941651E+00
             -0.623485570715979E+00
              0.337255814684858E+00
             -0.454824244289150E+00
             -0.325655459179156E+00
             -0.176431932746191E-01
             -0.113425186721216E+01
             -0.918691067840482E-03
             -0.156097513854631E+00
             -0.288382939422632E+00
              0.288929200186096E+00
             -0.968530614561891E+00
              0.108187889989547E+01
             -0.390650933238474E+00
             -0.247554906603861E+01
             -0.157623134018057E+01
              0.635423247830279E+00
             -0.780059024914690E+00
             -0.395613788698448E+00
             -0.419527850664083E+00
             -0.357648727810953E+00
             -0.189977846653883E+01
             -0.135574046259777E-01
             -0.114092875278901E+01
             -0.629353626057288E+00
              0.359443613746033E+00
              0.146156104119455E+01
              0.877373649005034E-01
              0.471885425687537E-01
              0.110710459204534E+01
             -0.108131062078871E+01
              0.513063123535424E+00
              0.111288357827731E+00
             -0.975927505284000E+00
             -0.571861661825833E+00
              0.355036001294556E+00
              0.623108708184683E-01
              0.309486364765905E+00
              0.252537442472669E+00
             -0.430863365670366E+00
             -0.617273026729951E+00
             -0.929597161896318E+00
              0.920199030189917E+00
             -0.124998069359868E+01
             -0.922133634352136E+00
              0.258363287374042E+00
             -0.154241504462572E+01
              0.435277853851533E+00
              0.111161239490643E+01
             -0.214930823555396E+00
              0.375366879367885E+00
             -0.626881835120587E+00
             -0.415649701224685E+00
              0.199116696386680E+00
              0.662165458852805E+00
             -0.673829418086494E+00
              0.413670600906584E+00
             -0.265125861945108E+00
              0.149446774856006E+00
              0.332040185048654E+00
              0.163293101925715E+00
             -0.236227601154855E+00
             -0.141959654961044E-01
              0.213759448346650E+00
              0.514211892825080E+00
             -0.130507220389626E+01
             -0.328093191251071E-01
              0.970759844760330E+00
             -0.161787338354741E+01
              0.605076383664130E+00
             -0.208160593624516E+01
             -0.217836823320342E+00
             -0.258675739328148E+00
             -0.480961173645085E-01
             -0.235715069095353E+00
             -0.507371713953328E+00
             -0.196312593752536E+00
              0.228954351734700E+00
             -0.474340666696171E+00
              0.200458646027763E+00
              0.166996580747301E+01
             -0.104457854635232E+01
             -0.460110942258387E+00
              0.778532733837376E+00
              0.382485566422146E+00
              0.787077150818874E+00
              0.378087993835724E+00
              0.296340019562064E+00
             -0.271122958628228E+00
             -0.909963733269153E+00
             -0.819142789795223E+00
             -0.651422676497470E+00
              0.105839110512567E+00
             -0.785695546227533E+00
             -0.216902307865396E+00
              0.111575608807135E+00
              0.451534024723369E+00
             -0.123942033498885E+00
              0.108283347972529E+01
             -0.121158938499075E+01
             -0.123876035687855E-01
             -0.135947435339877E+00
              0.580421015922993E+00
             -0.777317941576233E+00
             -0.512247281483604E+00
              0.235687465347251E+00
              0.822957621762149E+00
              0.139185471061175E+01
              0.543684726405858E+00
              0.850948052242846E+00
             -0.453691249909257E+00
              0.115767545707515E+01
              0.116100325002856E+01
             -0.198315682187573E-01
              0.562712356318626E+00
              0.691165135959950E+00
             -0.390295553838397E+00
              0.270947792212705E+00
              0.121244897140866E+01
             -0.384661381112079E+00
             -0.111160952881999E+00
             -0.113517871239706E+01
              0.407580376610024E+00
             -0.280232744593950E+00
              0.392581235101873E+00
              0.223243165153115E-01
             -0.719058125663511E+00
              0.829796622171917E+00
              0.721256921537938E+00
             -0.586469718398993E+00
              0.319513193922321E+00
             -0.110268561182202E+01
             -0.100119829985007E+01
              0.456547351294121E+00
             -0.125145969817492E+01
             -0.637847715383484E+00
              0.913020260234099E-02
              0.157534875226338E+01
             -0.422253966934470E+00
             -0.198991626202251E+00
             -0.380209393237235E+00
              0.205106613879402E+01
              0.332440282642740E+00
             -0.788947748513005E+00
              0.130145170373527E+01
              0.114305419047047E+01
              0.596394436682352E+00
              0.146580692685260E+01
              0.161419376224452E+01
             -0.555700504791191E-01
             -0.533115118273413E+00
             -0.446753915748571E+00
              0.513105765793739E+00
              0.728925162595303E+00
             -0.135047624672799E+00
             -0.439114391373414E+00
             -0.104831607063497E+01
             -0.376803426713106E+00
             -0.856802841521512E+00
              0.628941687824354E+00
              0.325401721412744E+00
              0.110955221357214E+01
              0.255625761815145E+00
             -0.417541557884878E+00
             -0.167378440523644E+00
              0.726663452909702E+00
              0.186159478153296E+00
              0.113364878976636E+01
              0.101431229833806E+01
             -0.149892987815520E+00
             -0.165952243123871E+00
             -0.187287260359786E+01
              0.906157600690979E+00
             -0.116127675763344E-02
              0.105729636567899E+01
             -0.471877793968460E+00
             -0.121227726556433E+01
              0.354481902856643E+00
              0.133672978026454E+01
             -0.458536965989819E+00
              0.121375247978447E+01
             -0.131469246619657E+01
             -0.481601033435062E+00
             -0.158383186682516E+01
              0.289596122388686E+00
              0.783692822093602E-01
              0.162434561505923E+00
             -0.114300620040438E+01
              0.172334730476157E+01
              0.989900405610376E+00
              0.109494038276615E+00
             -0.101876598452081E+01
              0.369960037310247E+00
             -0.328328280098031E+00
             -0.277621523607932E+00
             -0.515980330284384E+00
              0.305182177012844E+00
             -0.321334015119705E+00
             -0.332326530665530E+00
              0.435756400317040E+00
              0.428179771242384E+00
             -0.165290994748178E+01
              0.365380639507583E+00
              0.121701695807267E+01
              0.779979631983680E+00
             -0.239141887064432E+00
             -0.481326592158760E-01
             -0.672299544542101E+00
              0.101576000275634E+01
              0.159580560766162E+00
             -0.476598526865448E-01
             -0.115633438856802E+00
              0.199760961419787E+01
             -0.140970160273061E+00
              0.399458718269752E+00
              0.137468787071141E+01
              0.175504421015138E+01
              0.109549694563370E+01
              0.708726956894012E+00
             -0.118436831431149E+01
             -0.847482112755839E+00
              0.676093488251142E+00
              0.101556870215279E+00
              0.565972449309514E+00
              0.227866088119491E+00
              0.118915604325177E+01
             -0.145222471397007E+01
             -0.903309871645954E+00
             -0.206646617883827E+00
             -0.160962472225820E+01
              0.363275353773946E+00
              0.859853608052771E+00
              0.331868014218095E-02
             -0.372883040240743E+00
              0.371950595078654E+00
              0.247382903453055E+01
              0.587174329056933E+00
              0.327143519367696E+00
             -0.863672671380418E+00
             -0.106304172133015E+01
             -0.235560415298068E+00
              0.521964229171707E+00
             -0.106113977187190E+00
              0.487444701619251E+00
              0.655837249544392E+00
             -0.111647322027721E+01
              0.493838159036573E+00
              0.601129000837027E+00
              0.103114984405383E+01
             -0.187843190736832E+00
              0.108742044117398E+00
             -0.129011031489494E+00
             -0.816499410331275E+00
             -0.133353291826173E+01
              0.139191151453742E+01
             -0.190532953654848E+00
             -0.962020829001011E+00
              0.161351040733155E+00
             -0.556560366142591E+00
              0.156034961319626E+01
             -0.426668801319002E+00
             -0.693982331308362E+00
              0.681016648259894E+00
             -0.291204945031311E+00
              0.857796489462540E+00
              0.491285903158660E-01
              0.168337603688448E+01
              0.975057972557663E+00
              0.237433875070714E+00
             -0.731338016811369E+00
              0.523134046544588E+00
             -0.991566123345481E+00
             -0.833851735965618E-01
              0.117953840001734E+01
             -0.465137927401416E+00
             -0.800082491902257E+00
             -0.429436615128751E+00
              0.941089363912974E+00
              0.212553752850113E+00
             -0.147517385247649E+01
              0.622148812783311E+00
              0.101278111712673E+00
              0.205509924856834E+00
             -0.895492001154013E+00
              0.185717702477661E+00
              0.628618238618420E+00
              0.824677424367592E+00
              0.120233849654641E+01
              0.648735368854556E+00
              0.145222912569567E+00
             -0.102037814908292E+01
             -0.765613563790777E+00
             -0.116981462971575E+01
             -0.279698127623684E+00
              0.625564188068552E+00
              0.739913930422298E-02
              0.949542099978334E+00
             -0.581692203353031E+00
              0.319930254269654E+00
             -0.428462542199736E+00
             -0.494314272753126E+00
              0.107873796208835E+01
              0.952385008179366E-01
              0.114539469178103E+01
              0.860807635360779E-01
              0.352675754773288E+00
             -0.302590497744333E+00
              0.110140279679735E+01
             -0.307998328107556E+00
              0.552937382507548E-02
             -0.142825568522198E+01
             -0.124140996216488E+00
              0.126679225532326E+01
              0.116060262829602E+01
              0.472570849868570E+00
             -0.298959774474133E+00
              0.109227524809293E+00
             -0.440372338049484E+00
             -0.374894936346605E+00
              0.164574093577464E+01
              0.149027173706273E+00
             -0.538551339045648E+00
             -0.193581448001062E+01
             -0.765775395116423E+00
             -0.694951060300264E+00
             -0.110720874290500E+01
             -0.109044910843506E+01
             -0.129042674576723E+01
             -0.824598769344906E+00
             -0.495821529923129E+00
             -0.889294857283305E+00
              0.804349693585165E+00
             -0.307634666620219E+00
             -0.150837843779188E+01
              0.743045844339783E+00
             -0.620331703346720E+00
             -0.145830373646535E+01
              0.184261968228445E+01
             -0.476607797490695E+00
              0.260708428244033E+00
              0.671769898647506E+00
              0.260316289333096E+00
              0.491734385961236E+00
              0.116239680956713E-01
              0.233270378221958E-01
             -0.238540091732880E+00
             -0.135171688515784E+01
              0.189941105970898E+00
             -0.218690213964125E+01
              0.134203559362101E+01
             -0.736799490731424E+00
             -0.351209179117023E+00
             -0.391647210856863E+00
              0.412886539765428E+00
             -0.281291009720437E+00
              0.503143504448003E+00
             -0.107977825826944E+01
              0.654526895935562E+00
              0.793011661835019E+00
              0.147704666768478E+00
              0.173486256156946E+00
              0.393053057233030E+00
              0.193577187790061E+00
              0.531371561994015E+00
             -0.731698287095499E-01
             -0.138750532553347E+01
              0.172585351629099E+00
             -0.640808008250574E+00
             -0.616946962056764E-01
              0.103461414885340E+01
             -0.144883103295815E+01
              0.457412825732941E-01
              0.690671366351330E-01
              0.173004074531256E+00
              0.558290612207415E+00
             -0.233186652947562E+00
              0.154165772762517E+01
              0.659292789883946E+00
             -0.255428445380893E+00
             -0.153453350698070E+00
              0.117208149167165E+00
              0.143066528860314E+01
             -0.893980152355169E+00
             -0.184196823028754E+01
              0.531006450911932E+00
             -0.149279478094047E+00
             -0.290019579308461E+00
              0.356429132023858E+00
              0.136737806690541E+01
              0.758757138957808E+00
             -0.312526219896293E+00
             -0.996821351173903E+00
             -0.237856893573060E+00
              0.496349319725839E+00
             -0.333865964812885E+00
             -0.139803927189632E+01
             -0.181415187056779E+00
             -0.180593580042222E+01
             -0.955786769337732E+00
              0.160769545827362E+01
             -0.967920370159786E+00
             -0.131481142377728E+01
             -0.965971723887046E+00
             -0.742091398751813E+00
              0.625208394052196E+00
              0.155954295678777E+01
             -0.192601118145273E+00
              0.485814200012673E+00
             -0.382360603455867E+00
             -0.125447548228244E+01
              0.940734914216117E+00
             -0.889910796009181E+00
              0.436302457677360E+00
              0.509785396022552E+00
             -0.286493562477627E+00
              0.663057081897549E+00
              0.701393797840496E+00
              0.223971959214572E+01
             -0.173962078219143E+00
             -0.105731959549221E+01
             -0.122331523145289E+01
             -0.367389849991820E+00
             -0.783111145677869E+00
              0.169016967183205E+01
             -0.826511815492940E+00
              0.191499486812565E+00
              0.333027872420528E-01
             -0.354090055922079E+00
             -0.158609898436702E+01
             -0.117383168138296E+00
              0.184437707641084E+01
              0.415999657691718E+00
              0.130513300653912E+00
             -0.110099380985018E+01
             -0.100521481991985E+01
             -0.347446619104259E+00
              0.831967173442058E+00
             -0.489488519226136E+00
              0.184259278254045E+01
             -0.885904203484512E+00
              0.361162514883983E+00
             -0.227646311458413E+00
             -0.112677077125305E+01
              0.126851458748743E+00
             -0.104042262300257E+01
             -0.135539002725278E+01
              0.215309746831084E+00
              0.301809751859552E-01
              0.906634589320204E+00
              0.502287407443612E+00
             -0.648380682309618E+00
              0.388498743189366E+00
             -0.164160378736465E+01
             -0.861002337058197E+00
              0.170056310006220E+01
              0.545974393768536E-01
             -0.839890941893415E-01
             -0.444625616055642E+00
             -0.143169703596104E-01
             -0.235384316392627E+00
              0.169484371883099E+01
              0.755581572714567E+00
             -0.150587398512251E+00
              0.219094641209061E-01
             -0.686689397186957E+00
             -0.215283822079398E+00
             -0.113424352129535E+01
              0.954824511396873E+00
              0.123955082718545E+00
              0.137192924722659E+00
              0.356257958743208E+00
             -0.267927799865072E+00
             -0.426732533352371E+00
              0.189344607614940E+00
             -0.207036120798039E+01
             -0.185276122657442E+00
             -0.182882695942206E+00
             -0.113477653882654E+00
              0.881434708917826E+00
              0.119806704191945E+01
              0.334919391959083E+00
             -0.171017783618733E+01
              0.117179141704887E+01
             -0.437563832775577E+00
             -0.683961801029592E+00
             -0.160647774543659E+01
             -0.472223544911580E+00
              0.117680075435708E+01
              0.619286471330048E+00
              0.292318068635192E+00
              0.653500932908444E+00
             -0.103633557875776E+01
             -0.909315586152236E+00
              0.115775923786100E+01
              0.760164514974409E+00
              0.859626375679098E+00
              0.180650780039793E+00
              0.196353507604006E+00
              0.969623275462944E+00
              0.180869645523451E+01
             -0.307723557112855E+00
              0.752199226502665E+00
             -0.568214756610230E+00
             -0.804808535516779E+00
             -0.645131134801722E+00
             -0.627485955728390E+00
             -0.268022872240639E+00
             -0.870607043147498E+00
             -0.346367160416801E+00
             -0.236809832626920E+01
              0.573423009575553E+00
              0.523821668432788E+00
             -0.653652737837340E-01
             -0.681476994801532E+00
             -0.330656094693280E+00
             -0.105162584710908E+01
              0.941641564023863E-01
              0.145465555206304E+01
             -0.344309360441429E+00
             -0.349325063771927E+00
              0.354720111912739E+00
             -0.936842919179233E+00
              0.156357026091342E+01
              0.282538506197756E+00
              0.108076395852247E+00
              0.957801444718431E+00
             -0.119992348063639E+00
              0.108839345920248E+01
              0.382233147050436E+00
             -0.209860386804657E-01
              0.254341506437531E+00
             -0.195535799668243E+00
              0.121945544819393E+01
              0.124337754139415E+00
              0.396452154706643E+00
             -0.160671339671166E+00
              0.195536007459494E+00
             -0.173133042664330E+01
             -0.645124576418382E+00
             -0.920376600284303E+00
              0.913078529531198E+00
             -0.655813344517560E+00
             -0.100867485067696E+01
              0.110459162847692E+01
             -0.249489304170113E+00
              0.753282041007477E+00
             -0.162978463293417E+01
              0.315713613069717E+00
              0.660613815793374E-01
              0.133366640353490E+00
             -0.260699199548118E+00
             -0.117136688949124E+00
              0.919654475634363E+00
              0.436195038024962E-01
             -0.989184978176567E+00
             -0.399666706064386E+00
              0.325254196563018E+00
             -0.211041434875298E+01
             -0.158944199987761E+01
              0.111023571761359E-01
              0.306519633209712E+00
             -0.950612225303312E+00
              0.248054706155729E-01
              0.188102668072102E+01
              0.522906630930551E+00
             -0.988596636986021E+00
              0.141682423565616E+00
             -0.193313866376518E+00
              0.242046053309179E+00
             -0.670586502568123E+00
              0.428117043345538E+00
              0.435119117673126E+00
             -0.169518062825808E+00
              0.208627476994961E+01
             -0.594602890970597E-01
             -0.559500184400479E+00
              0.584957093707338E+00
              0.775096187065495E+00
             -0.577595618231402E+00
             -0.173948577384010E-01
              0.180329026744214E+01
             -0.176055470514616E-01
              0.960316737384912E+00
              0.303926983856550E+00
             -0.123301325295883E+00
             -0.277365653088603E+00
              0.870891426913962E+00
             -0.109228560205311E+01
             -0.294180607062957E-01
             -0.368955287571427E+00
             -0.735772329784337E+00
              0.207421103240932E+00
              0.466398873862279E+00
             -0.414481585121171E-01
             -0.306823694622320E-01
             -0.774600256023274E+00
              0.267156851030132E+00
             -0.148767961343750E-01
             -0.398182776587740E+00
             -0.369185051568101E+00
              0.290482384408620E+00
              0.101169536136325E-02
             -0.716426173560468E+00
             -0.197943109107044E+01
              0.133340857785061E+00
              0.258458087514295E+00
             -0.921064730378058E+00
             -0.474805407254811E+00
              0.151912770145877E+01
              0.247691079943834E+00
              0.832927387551669E+00
              0.218868872516305E+00
              0.750553770362725E+00
              0.407920308809491E-01
             -0.731391960740630E+00
             -0.244347345023434E+00
              0.932164913734850E-01
              0.584221545992787E+00
              0.135849142001705E+01
              0.905953105785716E+00
              0.588601512292106E-01
              0.212804272217656E+00
              0.111485451389804E+01
              0.529098333819808E+00
             -0.126071672896019E+01
             -0.503843042643470E+00
              0.186892360865564E+00
              0.197146030390431E+00
              0.469331573456668E+00
             -0.931384263423883E+00
              0.871478816523277E-01
              0.776064544396015E+00
              0.893739978800476E+00
             -0.779117721908093E+00
              0.640530015000262E-01
             -0.469292798360810E-01
             -0.387702397170871E+00
             -0.452938747710143E+00
             -0.203585918716092E+00
             -0.251489307757973E+00
              0.211921995470478E+00
              0.773156290173152E+00
             -0.606248592843721E+00
              0.149191032590456E+01
              0.616515647142560E+00
              0.495638776588305E+00
              0.687010161481198E+00
              0.437487969698006E+00
              0.661278514888671E+00
              0.102216091054656E+01
             -0.870022923002981E+00
              0.116038759433993E+01
             -0.209854256056565E+01
              0.577529070507759E+00
             -0.193973471006657E+01
              0.148386924405105E+01
              0.144646824190025E+01
             -0.154660812307620E+00
             -0.854391053980898E+00
             -0.794863460592621E+00
             -0.970793114240180E+00
             -0.121105432097436E+01
              0.101155174445623E+01
              0.796108713160415E+00
              0.449975453559204E+00
              0.450430196721683E+00
              0.847813093661351E+00
             -0.756938809352198E+00
             -0.266363701665975E+00
              0.978520365349530E+00
             -0.227294843013684E+00
              0.918707964422641E+00
              0.144299549685017E+01
             -0.705517548804170E-01
             -0.140073143291326E+01
              0.116910650117715E+00
              0.242891407687037E-01
             -0.195540648015466E+00
              0.603404116475064E-01
             -0.118955261213780E+01
             -0.135721484406782E+00
              0.254506736854759E+00
              0.276126948749652E+00
              0.928989455394960E+00
             -0.787577926613907E+00
              0.920961504836594E+00
             -0.701228927754192E+00
              0.511173055649946E+00
              0.813276494836713E+00
 
 BEEF-vdW xc energy contributions
           1 :   -12.8215741523370     
           2 :    10.5284028318661     
           3 :   -7.20206256334209     
           4 :    4.05481136080895     
           5 :   -1.70593785132368     
           6 :   0.302229863704641     
           7 :   0.293656281677743     
           8 :  -0.386461681921439     
           9 :   0.304404152058474     
          10 :  -0.274419723970363     
          11 :   0.350536163310810     
          12 :  -0.454735990576124     
          13 :   0.478469696173589     
          14 :  -0.374490850475377     
          15 :   0.174126249353474     
          16 :   4.188227097385600E-002
          17 :  -0.195148769988000     
          18 :   0.245828880982693     
          19 :  -0.206924176710530     
          20 :   0.124067141112420     
          21 :  -4.507366678895508E-002
          22 :  -4.960203975427291E-003
          23 :   2.499910102868697E-002
          24 :  -2.835136578617359E-002
          25 :   2.944535203328513E-002
          26 :  -3.387303292054256E-002
          27 :   3.402158441635450E-002
          28 :  -2.590473856387909E-002
          29 :   1.959039578424893E-002
          30 :  -2.600166938747428E-002
          31 :   -1.74274450988884     
          32 :   -1.08996532387650     

     Writing output data file ./pwscf.save/
 
     init_run     :     64.65s CPU     67.05s WALL (       1 calls)
     electrons    :    485.25s CPU    526.45s WALL (       1 calls)
     forces       :     25.77s CPU     27.98s WALL (       1 calls)

     Called by init_run:
     wfcinit      :      1.84s CPU      1.90s WALL (       1 calls)
     potinit      :     54.76s CPU     56.59s WALL (       1 calls)
     hinit0       :      6.61s CPU      6.71s WALL (       1 calls)

     Called by electrons:
     c_bands      :     71.96s CPU     72.78s WALL (      15 calls)
     sum_band     :     36.47s CPU     41.54s WALL (      15 calls)
     v_of_rho     :    306.28s CPU    333.75s WALL (      16 calls)
     newd         :     13.64s CPU     18.82s WALL (      16 calls)
     PAW_pot      :      2.02s CPU      2.02s WALL (      16 calls)
     mix_rho      :    104.43s CPU    109.09s WALL (      15 calls)
     vdW_kernel   :     33.49s CPU     33.49s WALL (       1 calls)

     Called by c_bands:
     init_us_2    :      1.23s CPU      1.25s WALL (      31 calls)
     regterg      :     69.15s CPU     69.97s WALL (      15 calls)

     Called by *egterg:
     rdiaghg      :      0.01s CPU      0.01s WALL (      82 calls)
     h_psi        :     63.74s CPU     63.76s WALL (      83 calls)
     s_psi        :      1.60s CPU      1.60s WALL (      83 calls)
     g_psi        :      0.20s CPU      0.20s WALL (      67 calls)

     Called by h_psi:
     h_psi:calbec :      1.26s CPU      1.26s WALL (      83 calls)
     vloc_psi     :     60.57s CPU     60.57s WALL (      83 calls)
     add_vuspsi   :      1.58s CPU      1.58s WALL (      83 calls)

     General routines
     calbec       :      1.63s CPU      1.63s WALL (     102 calls)
     fft          :    268.28s CPU    268.30s WALL (    2873 calls)
     ffts         :     45.31s CPU     45.31s WALL (     495 calls)
     fftw         :     58.56s CPU     58.56s WALL (     634 calls)
 
     Parallel routines
 
     PWSCF        :  18m16.93s CPU  20m 0.46s WALL

 
   This run was terminated on:  10:17:23  23Jan2023            

=------------------------------------------------------------------------------=
   JOB DONE.
=------------------------------------------------------------------------------=
