
     Program PWSCF v.6.7MaX starts on  4Jan2023 at 10: 0:16 

     This program is part of the open-source Quantum ESPRESSO suite
     for quantum simulation of materials; please cite
         "P. Giannozzi et al., J. Phys.:Condens. Matter 21 395502 (2009);
         "P. Giannozzi et al., J. Phys.:Condens. Matter 29 465901 (2017);
          URL http://www.quantum-espresso.org", 
     in publications or presentations arising from this work. More details at
     http://www.quantum-espresso.org/quote

     Parallel version (MPI), running on     1 processors

     MPI processes distributed on     1 nodes
     Reading input from cch2ch2-gas-ensemble.in
Warning: card &CELL ignored
Warning: card / ignored

     Current dimensions of program PWSCF are:
     Max number of different atomic species (ntypx) = 10
     Max number of k-points (npk) =  40000
     Max angular momentum in pseudopotentials (lmaxx) =  3
     file C.pbe-n-kjpaw_psl.1.0.0.UPF: wavefunction(s)  2S 2P renormalized
     file H.pbe-kjpaw_psl.1.0.0.UPF: wavefunction(s)  1S renormalized

     **************************************************************************
     Initializing libbeef V0.1.2 with the BEEF-vdW functional.
     Citation: Wellendorff et al., PRB 85, 235149 (2012).
     **************************************************************************


     IMPORTANT: XC functional enforced from input :
     Exchange-correlation= BEEF-VDW
                           (   1   4  43  14   2   0   0)
     Any further DFT definition will be discarded
     Please, verify this is what you really want


     gamma-point specific algorithms are used

     Subspace diagonalization in iterative solution of the eigenvalue problem:
     a serial algorithm will be used

 
     G-vector sticks info
     --------------------
     sticks:   dense  smooth     PW     G-vecs:    dense   smooth      PW
     Sum       33971   33971   8499              4567891  4567891  570843
 


     bravais-lattice index     =            0
     lattice parameter (alat)  =      41.4764  a.u.
     unit-cell volume          =   72750.3540 (a.u.)^3
     number of atoms/cell      =            7
     number of atomic types    =            2
     number of electrons       =        16.00
     number of Kohn-Sham states=           12
     kinetic-energy cutoff     =      60.0000  Ry
     charge density cutoff     =     240.0000  Ry
     scf convergence threshold =      1.0E-06
     mixing beta               =       0.7000
     number of iterations used =            8  local-TF  mixing
     Exchange-correlation= BEEF-VDW
                           (   1   4  43  14   2   0   0)

     celldm(1)=  41.476415  celldm(2)=   0.000000  celldm(3)=   0.000000
     celldm(4)=   0.000000  celldm(5)=   0.000000  celldm(6)=   0.000000

     crystal axes: (cart. coord. in units of alat)
               a(1) = (   1.000000   0.000000   0.000000 )  
               a(2) = (   0.000000   1.033584   0.000000 )  
               a(3) = (   0.000000   0.000000   0.986474 )  

     reciprocal axes: (cart. coord. in units 2 pi/alat)
               b(1) = (  1.000000  0.000000  0.000000 )  
               b(2) = (  0.000000  0.967507  0.000000 )  
               b(3) = (  0.000000  0.000000  1.013711 )  


     PseudoPot. # 1 for C  read from file:
     /users/bkreitz1/quantum-espresso/potentials/C.pbe-n-kjpaw_psl.1.0.0.UPF
     MD5 check sum: a169b0ebad56f5ec0d79c4633f80bf22
     Pseudo is Projector augmented-wave + core cor, Zval =  4.0
     Generated using 'atomic' code by A. Dal Corso  v.6.7MaX
     Shape of augmentation charge: PSQ
     Using radial grid of 1073 points,  4 beta functions with: 
                l(1) =   0
                l(2) =   0
                l(3) =   1
                l(4) =   1
     Q(r) pseudized with 0 coefficients 


     PseudoPot. # 2 for H  read from file:
     /users/bkreitz1/quantum-espresso/potentials/H.pbe-kjpaw_psl.1.0.0.UPF
     MD5 check sum: ae98473e6dc62675f0d0baffdab24f65
     Pseudo is Projector augmented-wave, Zval =  1.0
     Generated using 'atomic' code by A. Dal Corso  v.6.7MaX
     Shape of augmentation charge: PSQ
     Using radial grid of  929 points,  2 beta functions with: 
                l(1) =   0
                l(2) =   0
     Q(r) pseudized with 0 coefficients 


     atomic species   valence    mass     pseudopotential
        C              4.00    12.01100     C ( 1.00)
        H              1.00     1.00800     H ( 1.00)

     No symmetry found



   Cartesian axes

     site n.     atom                  positions (alat units)
         1           C   tau(   1) = (   0.4974524   0.5109186   0.4554209  )
         2           C   tau(   2) = (   0.4978052   0.4822707   0.5173690  )
         3           C   tau(   3) = (   0.5016680   0.5497102   0.5115892  )
         4           H   tau(   4) = (   0.4557663   0.4601762   0.5313858  )
         5           H   tau(   5) = (   0.5380219   0.4557390   0.5287997  )
         6           H   tau(   6) = (   0.4623190   0.5781356   0.5213445  )
         7           H   tau(   7) = (   0.5446112   0.5731447   0.5195486  )

     number of k points=     1  Gaussian smearing, width (Ry)=  0.0050
                       cart. coord. in units 2pi/alat
        k(    1) = (   0.0000000   0.0000000   0.0000000), wk =   2.0000000

     Dense  grid:  2283946 G-vectors     FFT dimensions: ( 216, 216, 216)

     Estimated max dynamical RAM per process >       3.68 GB

     Initial potential from superposition of free atoms

     starting charge   15.99984, renormalised to   16.00000

     negative rho (up, down):  8.859E-03 0.000E+00


     %%%%%%%%%%%%%%%%%%%%%%%%%%%%%%%%%%%%%%%%%%%%%%%%%%%%%%%%%%%%%%%%%%%%%%%%
     %                                                                      %
     % You are using vdW-DF, which was implemented by the Thonhauser group. %
     % Please cite the following two papers that made this development      %
     % possible and the two reviews that describe the various versions:     %
     %                                                                      %
     %   T. Thonhauser et al., PRL 115, 136402 (2015).                      %
     %   T. Thonhauser et al., PRB 76, 125112 (2007).                       %
     %   K. Berland et al., Rep. Prog. Phys. 78, 066501 (2015).             %
     %   D.C. Langreth et al., J. Phys.: Condens. Matter 21, 084203 (2009). %
     %                                                                      %
     %                                                                      %
     % If you are calculating the stress with vdW-DF, please also cite:     %
     %                                                                      %
     %   R. Sabatini et al., J. Phys.: Condens. Matter 24, 424209 (2012).   %
     %                                                                      %
     %%%%%%%%%%%%%%%%%%%%%%%%%%%%%%%%%%%%%%%%%%%%%%%%%%%%%%%%%%%%%%%%%%%%%%%%


     Starting wfcs are   16 randomized atomic wfcs
     Checking if some PAW data can be deallocated... 

     total cpu time spent up to now is       69.4 secs

     Self-consistent Calculation

     iteration #  1     ecut=    60.00 Ry     beta= 0.70
     Davidson diagonalization with overlap
     ethr =  1.00E-02,  avg # of iterations =  5.0

     negative rho (up, down):  7.435E-03 0.000E+00

     total cpu time spent up to now is      107.1 secs

     total energy              =     -61.57998728 Ry
     estimated scf accuracy    <       0.84670148 Ry

     iteration #  2     ecut=    60.00 Ry     beta= 0.70
     Davidson diagonalization with overlap
     ethr =  5.29E-03,  avg # of iterations =  1.0

     negative rho (up, down):  5.263E-03 0.000E+00

     total cpu time spent up to now is      142.6 secs

     total energy              =     -61.51017239 Ry
     estimated scf accuracy    <       0.21911262 Ry

     iteration #  3     ecut=    60.00 Ry     beta= 0.70
     Davidson diagonalization with overlap
     ethr =  1.37E-03,  avg # of iterations =  8.0

     negative rho (up, down):  5.379E-03 0.000E+00

     total cpu time spent up to now is      181.2 secs

     total energy              =     -61.53183521 Ry
     estimated scf accuracy    <       0.03349885 Ry

     iteration #  4     ecut=    60.00 Ry     beta= 0.70
     Davidson diagonalization with overlap
     ethr =  2.09E-04,  avg # of iterations = 13.0

     negative rho (up, down):  2.304E-02 0.000E+00

     total cpu time spent up to now is      222.6 secs

     total energy              =     -61.52756774 Ry
     estimated scf accuracy    <       0.01555722 Ry

     iteration #  5     ecut=    60.00 Ry     beta= 0.70
     Davidson diagonalization with overlap
     ethr =  9.72E-05,  avg # of iterations =  5.0

     negative rho (up, down):  7.792E-02 0.000E+00

     total cpu time spent up to now is      261.3 secs

     total energy              =     -61.52797008 Ry
     estimated scf accuracy    <       0.00761036 Ry

     iteration #  6     ecut=    60.00 Ry     beta= 0.70
     Davidson diagonalization with overlap
     ethr =  4.76E-05,  avg # of iterations =  4.0

     negative rho (up, down):  1.180E-01 0.000E+00

     total cpu time spent up to now is      300.7 secs

     total energy              =     -61.52913947 Ry
     estimated scf accuracy    <       0.00431319 Ry

     iteration #  7     ecut=    60.00 Ry     beta= 0.70
     Davidson diagonalization with overlap
     ethr =  2.70E-05,  avg # of iterations =  5.0

     negative rho (up, down):  1.109E-01 0.000E+00

     total cpu time spent up to now is      338.7 secs

     total energy              =     -61.52799845 Ry
     estimated scf accuracy    <       0.00195004 Ry

     iteration #  8     ecut=    60.00 Ry     beta= 0.70
     Davidson diagonalization with overlap
     ethr =  1.22E-05,  avg # of iterations =  7.0

     negative rho (up, down):  9.796E-02 0.000E+00

     total cpu time spent up to now is      379.3 secs

     total energy              =     -61.52784839 Ry
     estimated scf accuracy    <       0.00139171 Ry

     iteration #  9     ecut=    60.00 Ry     beta= 0.70
     Davidson diagonalization with overlap
     ethr =  8.70E-06,  avg # of iterations =  4.0

     negative rho (up, down):  6.757E-02 0.000E+00

     total cpu time spent up to now is      416.8 secs

     total energy              =     -61.52704103 Ry
     estimated scf accuracy    <       0.00054223 Ry

     iteration # 10     ecut=    60.00 Ry     beta= 0.70
     Davidson diagonalization with overlap
     ethr =  3.39E-06,  avg # of iterations =  7.0

     negative rho (up, down):  4.672E-02 0.000E+00

     total cpu time spent up to now is      457.0 secs

     total energy              =     -61.52689834 Ry
     estimated scf accuracy    <       0.00054589 Ry

     iteration # 11     ecut=    60.00 Ry     beta= 0.70
     Davidson diagonalization with overlap
     ethr =  3.39E-06,  avg # of iterations =  5.0

     negative rho (up, down):  3.722E-02 0.000E+00

     total cpu time spent up to now is      495.2 secs

     total energy              =     -61.52688799 Ry
     estimated scf accuracy    <       0.00015769 Ry

     iteration # 12     ecut=    60.00 Ry     beta= 0.70
     Davidson diagonalization with overlap
     ethr =  9.86E-07,  avg # of iterations =  3.0

     negative rho (up, down):  2.554E-02 0.000E+00

     total cpu time spent up to now is      532.0 secs

     total energy              =     -61.52694798 Ry
     estimated scf accuracy    <       0.00004386 Ry

     iteration # 13     ecut=    60.00 Ry     beta= 0.70
     Davidson diagonalization with overlap
     ethr =  2.74E-07,  avg # of iterations =  5.0

     negative rho (up, down):  2.306E-02 0.000E+00

     total cpu time spent up to now is      570.4 secs

     total energy              =     -61.52696219 Ry
     estimated scf accuracy    <       0.00002477 Ry

     iteration # 14     ecut=    60.00 Ry     beta= 0.70
     Davidson diagonalization with overlap
     ethr =  1.55E-07,  avg # of iterations =  2.0

     negative rho (up, down):  1.859E-02 0.000E+00

     total cpu time spent up to now is      606.0 secs

     total energy              =     -61.52697104 Ry
     estimated scf accuracy    <       0.00000603 Ry

     iteration # 15     ecut=    60.00 Ry     beta= 0.70
     Davidson diagonalization with overlap
     ethr =  3.77E-08,  avg # of iterations =  1.0

     negative rho (up, down):  1.691E-02 0.000E+00

     total cpu time spent up to now is      640.7 secs

     total energy              =     -61.52697699 Ry
     estimated scf accuracy    <       0.00000178 Ry

     iteration # 16     ecut=    60.00 Ry     beta= 0.70
     Davidson diagonalization with overlap
     ethr =  1.11E-08,  avg # of iterations =  1.0

     negative rho (up, down):  1.574E-02 0.000E+00

     total cpu time spent up to now is      667.9 secs

     End of self-consistent calculation

          k = 0.0000 0.0000 0.0000 (285422 PWs)   bands (ev):

   -22.2573 -15.7349 -13.9726 -12.4800 -10.1789  -9.7327  -7.6125  -5.7983
    -4.0275  -0.9222  -0.5059  -0.4456

     the Fermi energy is    -4.4502 ev

!    total energy              =     -61.52697778 Ry

     total all-electron energy =      -234.819252 Ry
     estimated scf accuracy    <       0.00000060 Ry
     smearing contrib. (-TS)   =      -0.00000000 Ry
     internal energy E=F+TS    =     -61.52697778 Ry

     The total energy is F=E-TS. E is the sum of the following terms:
     one-electron contribution =    -153.36625010 Ry
     hartree contribution      =      78.63347212 Ry
     xc contribution           =     -17.22240207 Ry
     ewald contribution        =      50.08280968 Ry
     one-center paw contrib.   =     -19.65460741 Ry

     convergence has been achieved in  16 iterations

     negative rho (up, down):  1.574E-02 0.000E+00

     Forces acting on atoms (cartesian axes, Ry/au):

     atom    1 type  1   force =     0.00012151    0.00160911    0.00173871
     atom    2 type  1   force =    -0.00002466   -0.00279134    0.00155368
     atom    3 type  1   force =     0.00065894    0.00038688    0.00185048
     atom    4 type  2   force =     0.00019433    0.00062837   -0.00059260
     atom    5 type  2   force =     0.00016848    0.00052736   -0.00077048
     atom    6 type  2   force =     0.00014078    0.00033500   -0.00131547
     atom    7 type  2   force =    -0.00125938   -0.00069537   -0.00246433

     Total force =     0.005615     Total SCF correction =     0.000356

     negative rho (up, down):  1.574E-02 0.000E+00

     negative rho (up, down):  1.574E-02 0.000E+00

     negative rho (up, down):  1.574E-02 0.000E+00

     negative rho (up, down):  1.574E-02 0.000E+00

     negative rho (up, down):  1.574E-02 0.000E+00

     negative rho (up, down):  1.574E-02 0.000E+00

     negative rho (up, down):  1.574E-02 0.000E+00

     negative rho (up, down):  1.574E-02 0.000E+00

     negative rho (up, down):  1.574E-02 0.000E+00

     negative rho (up, down):  1.574E-02 0.000E+00

     negative rho (up, down):  1.574E-02 0.000E+00

     negative rho (up, down):  1.574E-02 0.000E+00

     negative rho (up, down):  1.574E-02 0.000E+00

     negative rho (up, down):  1.574E-02 0.000E+00

     negative rho (up, down):  1.574E-02 0.000E+00

     negative rho (up, down):  1.574E-02 0.000E+00

     negative rho (up, down):  1.574E-02 0.000E+00

     negative rho (up, down):  1.574E-02 0.000E+00

     negative rho (up, down):  1.574E-02 0.000E+00

     negative rho (up, down):  1.574E-02 0.000E+00

     negative rho (up, down):  1.574E-02 0.000E+00

     negative rho (up, down):  1.574E-02 0.000E+00

     negative rho (up, down):  1.574E-02 0.000E+00

     negative rho (up, down):  1.574E-02 0.000E+00

     negative rho (up, down):  1.574E-02 0.000E+00

     negative rho (up, down):  1.574E-02 0.000E+00

     negative rho (up, down):  1.574E-02 0.000E+00

     negative rho (up, down):  1.574E-02 0.000E+00

     negative rho (up, down):  1.574E-02 0.000E+00

     negative rho (up, down):  1.574E-02 0.000E+00

     negative rho (up, down):  1.574E-02 0.000E+00

     negative rho (up, down):  1.574E-02 0.000E+00

     negative rho (up, down):  1.574E-02 0.000E+00

     negative rho (up, down):  1.574E-02 0.000E+00
 BEEFens 2000 ensemble energies
             -0.131101721410926E+01
             -0.444527972930975E-01
             -0.260315493216812E+00
              0.889225146198260E+00
             -0.424270306145516E+00
             -0.302102236240069E+00
             -0.963838502378980E+00
             -0.196794353025006E+01
             -0.661981416217350E+00
             -0.713416324938430E+00
             -0.728614029345261E+00
              0.132662540728753E+00
              0.756230918143515E-01
             -0.116173426677596E+00
              0.778491875472378E-01
              0.948231424403275E+00
             -0.382360898416649E+00
             -0.162876020678238E+00
              0.495993047885293E+00
             -0.221654009311651E+01
              0.112710728018480E+01
             -0.371058538970525E+00
             -0.127992556570482E+00
             -0.171716719360926E+00
              0.771561460584689E-01
             -0.821545108255211E-01
              0.176402446945074E+01
             -0.494052464870299E+00
             -0.146425310236541E+00
             -0.113498715541417E+01
              0.133863481598810E+01
             -0.506094716127996E-01
             -0.832470003073118E+00
              0.340857740441084E+00
             -0.584687928164733E-01
              0.610178224388556E+00
              0.500862670786697E-01
             -0.227533888585381E-01
              0.799592045547459E+00
             -0.197717396394471E+01
              0.110647374314147E+01
              0.243708647503875E+00
             -0.275076150975728E+00
             -0.581684148107943E+00
              0.247789533882368E+00
             -0.377618294135676E+00
              0.102843211989168E+01
              0.698132405226655E+00
             -0.354220348264866E+00
             -0.646953091949090E+00
             -0.628510796999127E+00
             -0.759770524581061E+00
              0.483648000886139E+00
             -0.104799179343196E+01
              0.334287067426764E+00
              0.123037497694729E+01
              0.153324082101929E+01
              0.638617512230331E+00
              0.320906214130075E+00
              0.670207685206567E+00
              0.183586843068835E+01
              0.303283895309724E+00
             -0.110110956714005E+01
             -0.177120962189070E+00
             -0.604113715499082E+00
              0.124441519293136E+01
             -0.142094292395809E+01
             -0.118464716778758E+01
             -0.706548993653553E+00
             -0.425359942024929E+00
             -0.752596842821669E+00
              0.557191649647955E+00
              0.270339860632175E+00
              0.324121906882300E+00
             -0.778073033779634E+00
             -0.714327457584274E+00
             -0.119172995792698E+01
              0.610173435948731E+00
             -0.700224918107041E+00
              0.660727876350991E+00
             -0.178706667199703E+00
             -0.556483049780315E+00
             -0.980110108060053E+00
             -0.294215777460984E+00
             -0.342607437130557E+00
             -0.278601577907785E+00
              0.778106930655099E+00
              0.159508862383491E+01
             -0.925177062608459E+00
             -0.158662346619144E+01
             -0.362901794007370E+00
              0.217030820461409E+01
             -0.112949038397353E+01
              0.612973855639648E+00
             -0.239453924077630E+00
             -0.117084837126669E+01
              0.551470228394210E+00
              0.582020503105380E+00
             -0.303547173785060E+00
              0.558885269055660E+00
             -0.487628710845613E+00
             -0.126005458866030E+01
              0.205384069696052E+01
              0.902210614485934E+00
              0.398086003127210E+00
              0.251488782482560E+00
              0.483481810280018E+00
              0.162807593050332E+01
             -0.535031480112776E+00
              0.529122033001779E-01
             -0.275781717104536E+01
              0.337958288456457E+00
             -0.132001245064652E+01
              0.251746050047761E+00
              0.434504575777597E+00
             -0.754406109316751E+00
             -0.993252269726872E+00
              0.369747058906036E-01
             -0.628073723206667E+00
              0.905215387990973E+00
             -0.901461783340493E+00
             -0.183842734608870E+00
             -0.772268433829882E+00
             -0.658034435562813E-01
              0.120529065224809E+00
              0.494761220191248E+00
             -0.563415482005247E-02
             -0.118392076441912E+00
              0.136258001823497E+01
              0.184892033067483E+01
              0.100117032176382E+01
              0.126357784549573E+01
             -0.264303875393433E+00
              0.155949120678182E+00
              0.102304341533026E+01
              0.142176495229732E+00
             -0.153256375731232E+01
             -0.914007013477566E+00
             -0.985488563026869E+00
             -0.589257051010294E+00
              0.513983199037953E+00
             -0.244765871910618E+01
             -0.238777406396474E+00
              0.943753585043678E+00
             -0.813996903221895E+00
             -0.565465396462123E+00
              0.118966755194859E+01
              0.982150436170550E+00
             -0.563624349022346E+00
              0.703309427117612E+00
             -0.510311920955369E+00
              0.759371671834512E+00
              0.130377000312546E+00
              0.192131497758491E+00
             -0.163582180907743E+01
             -0.951394107369715E+00
             -0.179591591184625E+00
             -0.804615679446411E-01
             -0.862917468140047E+00
              0.224227581426633E+01
             -0.203187315061603E+00
             -0.533511491375340E+00
              0.768170472178474E+00
             -0.879376781282694E+00
             -0.778033382168109E+00
              0.665425677424041E+00
              0.252756734772131E+00
              0.221759176156549E+00
              0.346015750223856E+00
             -0.211439541421413E+00
              0.177139946888877E+00
              0.115663565334123E+01
             -0.520589655061692E+00
              0.448994643438011E+00
              0.177905477707679E+01
              0.633080986216372E+00
             -0.689152929538093E-01
             -0.429585315177968E+00
              0.312118763805270E+01
             -0.521764555978695E+00
              0.803070196322221E+00
              0.640347110434054E+00
              0.523637621804779E+00
              0.185510638416431E+01
              0.915383054247981E+00
             -0.101356385480416E+00
              0.516623834012155E+00
              0.105887939609853E+01
              0.765122626678960E+00
             -0.123614926081110E+01
              0.189714272008288E+01
             -0.172456696083377E+01
             -0.190676442717317E+00
              0.111208665955542E+01
              0.383289008259335E+00
              0.112796296209336E+00
              0.526110521004398E+00
              0.306069906676781E+00
              0.642639807577448E+00
             -0.124508143292752E+01
              0.605388345440669E-01
             -0.464762399097072E+00
             -0.968239593698232E-01
             -0.702912748419564E-01
             -0.278379430787847E+00
             -0.131953307447072E+00
              0.166812514339154E+01
             -0.941382108210007E-01
             -0.571159182588159E+00
             -0.242783524295447E-01
              0.293642440597783E+00
             -0.129530942904830E+01
             -0.115413235677336E+01
             -0.671433425256643E+00
             -0.126651050733081E+01
             -0.385708483623415E+00
             -0.803627191720130E+00
              0.354284037147265E+00
              0.556664655292198E-01
             -0.263996400552824E+00
             -0.158011099769568E+00
              0.932822079096436E-01
             -0.235243185982208E+00
              0.131244261293362E+01
             -0.177911635990955E+01
             -0.263518960200412E+00
             -0.259396565346345E+00
              0.301232653698568E+00
              0.468259114538113E+00
             -0.103679541457763E+01
             -0.224352561581053E+00
              0.901889644078612E+00
             -0.383417378651199E+00
              0.277911348934647E+00
              0.661095419972507E+00
             -0.127506609073240E-01
              0.230562741743966E+01
             -0.181308039099994E+00
             -0.688600659115885E+00
             -0.137631585249069E-01
             -0.578822643062186E+00
              0.109569148156684E+01
             -0.100083433881136E+01
              0.294197682365100E+00
              0.959233170709220E+00
             -0.251845388868541E+00
              0.236425452387252E+01
              0.255589030880884E+01
             -0.142607123392204E+01
              0.115685755359222E+01
              0.497702177668744E+00
             -0.113829859728941E+01
              0.338312883999590E+00
              0.893029026111656E+00
              0.962617331294536E+00
              0.917752162889087E-01
              0.388576164113788E+00
              0.152188040328804E+01
             -0.464355377695259E+00
              0.179358065023080E+00
              0.132480144163164E+01
             -0.717781313163441E+00
             -0.519736101413711E+00
              0.121416650024390E+01
              0.629746406279406E+00
              0.153135630258577E+01
              0.708973487310898E+00
              0.293380266048788E+00
              0.491768622239321E+00
              0.865346189632405E+00
             -0.109264480676762E+01
              0.170697236292448E+00
              0.594767578003726E+00
              0.227095301878489E+00
              0.497153053722475E+00
             -0.126182483778749E+01
              0.632826755195289E+00
             -0.861803957485781E+00
             -0.631350203951730E+00
              0.411879092512716E+00
             -0.157032666170611E+00
              0.122635839154866E+01
             -0.240663032797009E+00
              0.588795938220819E+00
              0.596472124377106E+00
              0.154001661573546E+01
              0.104549786346343E+01
              0.103793088503680E+01
             -0.107326130848246E-01
             -0.244649839798361E+00
             -0.593320311536765E+00
              0.166714946915723E+01
              0.166388701050332E+01
              0.799389822884881E+00
             -0.584128404475872E+00
              0.988843714040148E+00
              0.277762042774494E-01
              0.315074505845928E+00
              0.141559898833894E+01
             -0.544928346542464E-01
             -0.205816361537475E+00
             -0.394856811571499E+00
             -0.126979129238493E+01
              0.193779173889268E+01
              0.105779446817880E+01
             -0.132290735753396E+01
             -0.446415032454703E+00
              0.488049137967191E+00
             -0.201846812475395E+00
              0.132901460196365E+01
              0.306226844007096E+00
              0.163652398364179E+01
              0.634917004845913E+00
             -0.437476573195561E+00
              0.338914343607053E+00
             -0.143447771461956E+00
             -0.483697829152268E+00
              0.329320980623580E+00
              0.299538284225749E+00
              0.183609444565883E+01
              0.152934141175934E+01
              0.116224026352613E+01
              0.133257259555417E+01
              0.141168043870961E+00
             -0.511420969930183E+00
              0.266834148866156E+00
             -0.661387912038939E+00
             -0.116117736095324E+01
             -0.112430665431258E+01
             -0.651750070366041E+00
             -0.217434879598373E+01
             -0.766149588359019E+00
             -0.175421355332923E+01
              0.428173150339148E+00
             -0.904192428292246E+00
              0.104869855053445E+01
             -0.200723375862453E+01
             -0.595670947393944E+00
              0.742098225367957E+00
              0.434778554157631E+00
             -0.184132473478673E+01
              0.104670261714820E+01
             -0.583126495019824E+00
              0.111653958602881E+01
             -0.528547600960778E+00
             -0.157843312755625E+01
              0.354109759565178E+00
             -0.132910269597120E+01
             -0.381471187070055E-01
             -0.452428997223077E-01
              0.821232371669517E+00
              0.253672485882379E+01
             -0.852739393848338E+00
             -0.753105511313042E+00
             -0.142334024549143E+00
             -0.145277800489195E+00
             -0.161201754669008E+01
             -0.113415626133483E+01
              0.994495403699734E+00
             -0.342853926971407E+00
              0.474869083089683E+00
             -0.987586374545318E+00
             -0.326928438413050E+00
             -0.835714770413555E+00
              0.968001488415239E+00
              0.228269490879963E+00
             -0.499171288836594E+00
             -0.381870142942834E+00
              0.279344974358673E+00
             -0.146708472271703E+00
              0.802297432012091E+00
             -0.530533248620605E+00
              0.250757000630706E+00
              0.691774309738404E+00
              0.234386928565739E+00
             -0.499511195807044E+00
              0.311313517180033E+01
              0.122320613759286E+01
              0.210812439644220E+00
              0.120781128412368E+00
             -0.122399603878445E+01
              0.675773028225118E+00
             -0.158379623156367E+01
             -0.701309070535228E+00
             -0.121295329817174E+01
             -0.371393416742987E+00
              0.120246572435174E+01
             -0.116813441759596E+01
              0.558777801616434E+00
             -0.971248963480100E-01
              0.190741157090164E-01
             -0.624462393043662E+00
             -0.830199907326277E+00
             -0.157625131221069E+00
             -0.629620618417435E+00
             -0.438890790433121E+00
             -0.810636311292510E+00
             -0.988185105844741E-01
             -0.637340880960464E+00
             -0.973660837079256E+00
              0.415806974092834E+00
             -0.227176361145232E+00
              0.488530239750054E+00
              0.162035859629334E+00
             -0.152977756486525E+01
             -0.100905181205042E+01
             -0.103631854922812E+01
              0.624440803028953E+00
             -0.142723172957081E+00
             -0.122621693468374E+01
              0.115122088617035E+01
             -0.858575550439235E+00
              0.120748876306942E+01
             -0.633036653172585E+00
             -0.979702012776494E+00
              0.484478099040913E+00
             -0.146699904284676E+01
             -0.626357914518876E+00
              0.116526939326124E+01
              0.418824962388701E+00
             -0.896756067551891E+00
              0.113267283770439E+01
             -0.328419897029658E+00
             -0.749369564558364E+00
             -0.599911869398064E+00
             -0.105917450887033E+01
              0.531057361241640E+00
             -0.175236685020034E+01
             -0.152626501240621E+01
             -0.154015423695846E+00
             -0.582457000317003E+00
             -0.123289483449780E+01
              0.154814011303366E+01
              0.278627625212404E+01
             -0.411319051512531E+00
             -0.805208837632998E-01
             -0.120647058435181E+01
              0.133522170416647E+01
              0.444978114836166E+00
             -0.434021099531174E+00
             -0.722653756884238E+00
              0.282110803017458E+00
             -0.119223273759712E+01
             -0.222765848056578E+00
             -0.172443397986408E+01
              0.688612404213202E+00
              0.216069797139063E+00
             -0.119644578005341E+00
             -0.254974492295323E+00
             -0.870080644113155E+00
             -0.275888012044673E+00
              0.277408798036642E+01
             -0.307873513854098E+00
             -0.992307086710151E+00
             -0.140454961776731E+01
              0.288857661819520E+00
             -0.782527239054702E+00
              0.211764366988185E+00
              0.678535374695270E+00
              0.103247809474268E+00
              0.736271251440820E+00
              0.381272466629161E+00
              0.118652247533411E+01
              0.480677393030578E+00
             -0.745377801549912E+00
              0.112090418345230E+01
              0.690792779868891E+00
              0.254923425079663E+00
              0.739918323741036E+00
             -0.655323045674125E+00
              0.144347410440935E+01
              0.539903835327721E+00
             -0.707011779393414E+00
             -0.112676733092607E+00
             -0.333116073242125E+00
              0.298938869985567E+00
             -0.498686286369536E+00
             -0.259207924142385E+00
             -0.261556083273227E+00
              0.163263314035951E+01
              0.117862672462372E+01
             -0.127652402567935E+01
             -0.175690108843798E+00
             -0.995990408662229E+00
             -0.251778605894901E+00
             -0.428353930830878E+00
              0.231845110501688E+00
             -0.578148552268188E-01
             -0.585318267209475E+00
              0.353055589809872E+00
             -0.195613514656702E+00
             -0.136179285085933E+00
              0.176028723814821E+01
              0.291479593211714E+00
             -0.169672317400186E+01
             -0.762798275485196E+00
              0.195004668814980E+01
              0.476584565713806E+00
             -0.170918497982807E+00
              0.222242197493450E+01
             -0.324390748974300E+00
             -0.148073657844945E+00
             -0.251052411764155E+00
              0.322301035177022E+00
              0.688393597265420E+00
              0.529847732516997E-01
              0.579658166246224E+00
             -0.215535548611216E+00
             -0.829659556567603E+00
             -0.798148960772576E+00
             -0.974765333180171E+00
              0.813521137085045E+00
              0.294286372173141E+00
              0.767972913753170E+00
              0.325054074853904E+00
              0.182536722092792E+01
              0.414840223048151E+00
             -0.155920605241828E+01
             -0.662335641384180E+00
              0.457907787368876E-01
             -0.567205901863726E+00
              0.129422920476186E+01
             -0.323977728086884E+00
              0.339646877661703E+00
              0.112468244892110E+01
             -0.164492797050452E+01
              0.298117494766522E+01
              0.394649892459999E+00
              0.487638277371847E+00
              0.772990468680403E+00
              0.643428598813092E-01
             -0.389609351624483E-01
              0.646104238274293E+00
             -0.713293706811113E+00
              0.176348221961305E+01
              0.153812124604882E+01
             -0.788320707575167E+00
              0.343619159832516E+00
              0.146461975701313E+01
             -0.430101686417487E+00
              0.425003223687435E+00
              0.648973531779939E+00
              0.830221089231529E+00
             -0.149900882058378E+01
             -0.107723404729967E+00
             -0.523087123865979E+00
             -0.127444596390069E+00
             -0.150941069996224E+00
              0.158556853837936E+00
             -0.248804820229362E+00
             -0.621988452692904E+00
              0.346312773760075E+00
              0.117193009936716E+00
              0.107539584427296E+01
             -0.947235754679801E+00
              0.941905755187269E+00
              0.103077208967738E+01
             -0.169176922125136E+00
              0.149850334553738E+01
             -0.136352530466774E+01
             -0.208899109064688E+01
             -0.172127817377511E+00
             -0.131013970537712E+00
             -0.549773653106200E-02
              0.158178468438839E+01
             -0.217439595882480E-01
              0.864454533415554E+00
              0.122241521931260E+01
              0.788200154606171E+00
             -0.129507692958711E+00
              0.118750651021736E+01
             -0.336221207545001E+00
             -0.798697681479686E+00
             -0.709323726291068E+00
              0.218725492296543E+00
              0.697136932096018E+00
             -0.513724549236976E-01
              0.673521936752035E+00
              0.112656653709147E-01
              0.111375194890066E+01
              0.322080512189080E+00
              0.160395651330192E+00
              0.234754509144981E-01
              0.589666268867173E+00
              0.823585928415960E+00
              0.297734343447495E+00
             -0.685883413640638E-01
             -0.110283205424911E+01
              0.608799316158292E+00
              0.421920913869685E+00
              0.666260688281987E+00
              0.601678910731530E+00
              0.737115524388319E+00
             -0.185535896431071E+00
              0.702346216051506E+00
             -0.603949635717452E+00
             -0.394517375395811E-01
             -0.106385489987239E+01
             -0.700804700947278E+00
              0.875558274074760E+00
             -0.178591334402484E+01
              0.480583038304127E+00
              0.284032152444588E+00
              0.175778074862127E+01
             -0.242238039178570E+00
              0.678192574979410E+00
             -0.228510164873281E+00
             -0.999656384760105E+00
             -0.132406562696327E+01
             -0.317288007600548E+00
             -0.184516825173069E+01
              0.160555223106075E+00
             -0.428584572714929E+00
              0.664893886835544E+00
              0.504797897871764E+00
             -0.591681354024292E+00
             -0.622124996851111E+00
              0.867881388519147E+00
             -0.116454199241071E+01
             -0.282173258686644E+00
             -0.326623431446631E+00
              0.553574225492851E+00
              0.116490769210182E+00
              0.737828521573656E-01
             -0.297891683064177E+00
              0.108618606980394E+01
             -0.122802021016644E+01
              0.133784717859800E+00
              0.122632037249788E+01
             -0.747297625949674E+00
              0.838990219294411E-01
              0.421548779608560E-01
             -0.130942090131274E+01
             -0.758885541676001E+00
             -0.281592076737087E-01
              0.636040519515296E+00
              0.703170272409710E+00
              0.970528174014849E-01
             -0.246956200438618E+00
              0.333504321770762E+00
             -0.807503666906059E+00
             -0.104810858622612E+00
             -0.107140213054742E+01
             -0.538166592007613E+00
              0.102236133636439E+01
             -0.620217758190167E+00
              0.142786956031802E+01
             -0.481172378009627E+00
              0.667124899194310E+00
              0.516382415953796E+00
             -0.121201516621632E+01
             -0.505234132637181E+00
              0.197837638587999E+00
             -0.855108118017104E+00
             -0.837246355024575E+00
             -0.180640576473927E+01
             -0.111852125690171E+01
             -0.100008509577509E+01
             -0.919762275252131E+00
              0.226030365608887E-02
              0.503088165016850E+00
              0.243500920507108E+00
              0.563616325805337E+00
             -0.118882003250164E+01
              0.272504609617833E+00
              0.598960830537562E+00
             -0.139197683262715E+01
             -0.115435344010933E+01
             -0.797914899921812E+00
             -0.678326465738458E+00
              0.282047838163335E+00
             -0.621132456109859E-01
             -0.843149140615751E+00
              0.559732797448881E+00
             -0.475418923524284E+00
              0.105874770308893E+01
             -0.178548869752080E+01
              0.130434616900719E+01
             -0.243323500592658E+00
             -0.898344208605292E+00
             -0.554908940678772E+00
             -0.227872904687074E-01
              0.995582348409510E+00
             -0.141158258241743E+01
             -0.254587211181447E+00
             -0.338257149045141E+00
              0.826765106843507E+00
              0.162484772575516E+01
             -0.204036363077555E+01
              0.185496474133926E+01
              0.771052843794147E+00
             -0.154110967047234E+01
             -0.630829213886658E+00
              0.160444996321485E+01
              0.114898079711741E+01
             -0.431736203809878E+00
             -0.146287934967249E+00
              0.379934000034965E+00
              0.158147427241671E+01
             -0.121424274180750E+01
              0.256603842738472E+00
             -0.156946579322379E+00
              0.530603165644337E+00
             -0.142669937409311E+01
             -0.441342710673001E-01
             -0.535779715763222E+00
              0.982975924385022E+00
              0.777894616944485E+00
             -0.181470610472281E+01
             -0.957300711196393E+00
             -0.417958035103780E+00
             -0.894755904216981E+00
             -0.247792089274891E+00
             -0.353920391925005E+00
              0.925839526375282E+00
              0.876377598184755E+00
             -0.254032150173051E-01
             -0.894379919913626E+00
             -0.175230467225027E+01
              0.103616460533848E+01
             -0.927112092761068E+00
             -0.769673177787864E+00
              0.152683678913771E+00
             -0.759231417643922E+00
             -0.818009695609904E+00
             -0.637655610003192E+00
             -0.105118605061394E+01
             -0.479945189025380E+00
             -0.100530894330681E+01
              0.111118481462827E+01
              0.118597197709800E+01
             -0.226305556950171E+00
             -0.419688894333719E+00
              0.644240865789261E-01
              0.861821989570835E+00
             -0.171579489393906E+01
             -0.476124143213029E+00
              0.999629270262494E+00
              0.146509486070046E+01
             -0.199687803422486E+00
              0.208478005253541E+00
              0.107127369683910E+01
              0.311994705161078E+00
              0.478628196388033E-01
             -0.793083036861983E+00
              0.292506295360372E+00
             -0.654442962193451E+00
             -0.146607536823040E+00
             -0.428671162484735E+00
             -0.285006543218993E+00
              0.494019867831616E+00
              0.160191240048730E+01
             -0.149846910645818E+00
              0.322114065789645E-01
             -0.185849382729658E+01
             -0.369598160932425E+00
             -0.716260620661837E+00
             -0.278251145534529E-01
             -0.965549826260579E+00
              0.183749898074305E+01
              0.176067573348376E+01
              0.375240107242947E+00
             -0.482608064082534E+00
              0.373094067152127E+00
              0.404258412358383E+00
             -0.940635295978764E+00
             -0.193777488953366E+00
              0.414765604209210E+00
              0.247028343167838E+00
              0.103151948046006E+01
              0.786843767609933E+00
             -0.425580003192258E+00
              0.429703143999876E+00
             -0.197934239253973E+01
             -0.288371418865476E-01
              0.182537287173440E+01
              0.378434711511717E+00
             -0.612110911805974E-01
              0.546325324589372E+00
             -0.479215252882659E+00
              0.176308299509627E+01
             -0.421038713549796E+00
              0.156434673565139E+01
              0.776877279136021E+00
             -0.909397017592140E+00
              0.678586794135608E+00
             -0.566745436459697E+00
             -0.138329101608724E+01
             -0.162839942967767E+00
             -0.108964166609331E+01
             -0.105899332804836E+01
             -0.279991487357467E-01
              0.769132862344190E+00
             -0.288735048640314E+00
             -0.613785003696560E+00
              0.155409821448508E+00
             -0.132583934463543E+01
             -0.673821052928494E-01
             -0.176648024037300E+01
              0.105422078078226E+01
             -0.778664712063324E-01
             -0.992389029602947E+00
             -0.318418288975368E+00
              0.356165375217829E+00
             -0.775429820099315E+00
             -0.893058117692859E+00
              0.185872248511792E+01
             -0.565274687955984E+00
             -0.753822933920642E+00
              0.652373766995487E+00
             -0.450385172622265E+00
              0.116417945435429E+01
             -0.600703955462016E-01
              0.503711193001513E-01
              0.222983908649842E+01
             -0.168913072186582E+00
             -0.783492771515467E+00
             -0.974173221577558E+00
             -0.103434315835342E+01
             -0.758261884016257E+00
              0.590242257068866E+00
              0.636941018230049E+00
              0.568978598439576E+00
              0.150597609101391E+01
              0.113600942487370E+00
              0.472080482132965E+00
             -0.117159074407792E+01
              0.430984915534651E-01
             -0.312942577240842E+00
             -0.562197941069014E+00
             -0.148486913184756E+00
              0.667226860052604E+00
              0.772247664363896E+00
             -0.486131476748790E-01
              0.267862919399004E+00
              0.552166232194756E+00
              0.691446731122267E+00
             -0.478542519932780E+00
             -0.196911399197585E+00
              0.686178405502336E-02
             -0.527898510009333E+00
             -0.612020974115568E-01
             -0.818553062751126E+00
              0.160621643173903E+01
              0.124779044701269E+01
             -0.373897333762983E+00
              0.346953405318274E+00
             -0.118753054136535E+00
             -0.648656407556832E+00
              0.760093473853307E+00
             -0.187982264832923E+00
              0.750861623856180E+00
             -0.970188584237899E+00
              0.363211206518963E+00
             -0.161419481738967E+00
             -0.108711154767521E+01
             -0.491058993427764E+00
              0.490789118362331E+00
             -0.198987135737892E+01
              0.783195375129480E+00
              0.945451137853471E+00
             -0.206962934827365E+00
             -0.150083188880983E+00
             -0.799177113117748E-01
              0.541591223163318E+00
             -0.685254787296902E+00
              0.632828019522485E+00
              0.654139701345727E+00
             -0.183099099146060E+01
             -0.741461830033833E+00
              0.491272566997240E+00
             -0.249763486451132E+00
              0.100115071912603E+01
             -0.126015695625703E+01
             -0.208403129656002E+00
             -0.802575382266654E+00
             -0.265021500838606E+01
              0.160177062701574E+01
             -0.121404709547493E+01
             -0.136282274117615E+01
              0.130969000118625E+00
              0.262469099074991E+01
              0.139473311855424E+00
             -0.668245432563055E+00
             -0.284114901547774E-01
             -0.771226060197334E-01
             -0.173165125762458E+01
             -0.112278457048178E+01
              0.174411648970489E+01
             -0.245230690804539E+00
             -0.729565234555129E+00
              0.986384172428103E+00
             -0.663109319003541E+00
              0.679260172170345E+00
              0.981564222711763E+00
             -0.107260842058582E+01
             -0.569879896728681E+00
             -0.653299885181657E+00
             -0.354813113326030E+00
             -0.394547201338818E+00
             -0.377774923113499E+00
              0.400275287185123E+00
             -0.721012264848899E+00
              0.564481156108116E+00
              0.111551538025819E+01
             -0.128163351126215E+00
             -0.424349706280124E+00
              0.308201642215599E+00
              0.110527527302870E+01
              0.112124817833201E+01
              0.219744622889854E+00
             -0.215510718677706E+00
             -0.229036223006490E+00
             -0.107950827535397E+01
              0.824784024712418E+00
             -0.500331845576794E+00
              0.463315037169462E+00
             -0.264984171828058E+00
              0.526208771943888E+00
              0.347914622983428E+00
             -0.166027416552734E+01
             -0.513004113634056E+00
             -0.159224583579950E+01
             -0.812026613857682E+00
              0.844958968999827E-01
             -0.399522700542643E+00
              0.716031977492384E+00
             -0.581524866368115E+00
              0.748586716527753E-01
              0.149632814136153E+00
              0.141996818576014E+01
              0.740658457872928E+00
             -0.665705587097044E+00
             -0.452402307839628E-01
              0.308444594786600E+00
              0.748830629056145E+00
             -0.117569229405152E-01
              0.114991530226598E+01
              0.552610724709326E+00
              0.182419070762181E+01
              0.671453820051793E-01
              0.126019918191303E+01
             -0.562568108303708E+00
             -0.793618416160280E+00
              0.427151830492960E-01
              0.225054477713410E+00
              0.455938931906480E+00
             -0.421289758877052E+00
             -0.221225380336550E+00
              0.471087653013684E+00
             -0.962705078919478E+00
             -0.121700360183994E+01
              0.161520512145164E+01
             -0.127769214191826E+00
             -0.745036826691771E+00
             -0.103492137225561E+00
             -0.282084932538961E+00
              0.899492870860916E+00
              0.726669852297940E+00
             -0.414179767066951E+00
              0.125570468039982E-02
             -0.521440448167677E+00
             -0.726050415462822E+00
             -0.485839817150135E+00
             -0.198405988359355E+01
              0.310630289224836E-01
             -0.130819989318482E+01
             -0.119527578722727E+01
             -0.756988480292515E+00
              0.448973186918140E+00
             -0.777315795061651E+00
              0.488281576046198E+00
             -0.131892174731965E+01
              0.182888581953300E-02
             -0.857050012198666E+00
              0.165470744105548E+00
              0.158837492525183E+00
              0.722021391650509E+00
             -0.419098661907810E+00
             -0.378833607419077E+00
              0.652531263949841E+00
              0.120604987771635E+01
              0.658018184119545E+00
              0.213956121412924E+00
             -0.151287468328879E+01
             -0.323781845813466E+00
             -0.568431537153021E+00
             -0.124405857457533E+01
              0.874511612659703E+00
             -0.698913953243055E+00
             -0.148605728917553E+00
             -0.565976472853342E+00
             -0.201071719452534E+01
              0.113562731186308E+01
             -0.374822808694748E+00
              0.786521355577751E+00
             -0.150555674911838E+01
              0.133280429401706E+01
              0.128082577327877E+00
             -0.522316995601656E+00
              0.210120281929426E+00
             -0.399284075037955E+00
             -0.126989142098184E+01
              0.349758812748578E+00
              0.803702427213146E+00
             -0.284964305706659E-01
             -0.700800475787998E+00
             -0.327850945324131E+00
              0.420807736792156E+00
              0.746505938764843E+00
              0.125220384508108E+01
              0.457692562477508E+00
             -0.464523639351920E+00
              0.203540704184933E+01
              0.427290149930614E+00
              0.960259420654294E+00
             -0.340051752714773E+00
              0.601424691641150E+00
              0.485680890028557E+00
             -0.125280169534361E+01
             -0.451040774378415E+00
             -0.823930307961575E+00
             -0.844878961331997E+00
             -0.247903361791426E+00
             -0.173705679920847E+00
             -0.943717896617753E+00
             -0.224902869488758E+01
             -0.547636057708407E+00
              0.272914434103406E+00
              0.125052977874242E+00
              0.319925281987685E+00
              0.818182707833172E+00
              0.212696489917195E+00
              0.639913796368898E+00
             -0.878980196366391E+00
              0.876003247582084E+00
             -0.801906445309609E+00
             -0.136001838983725E+01
              0.415862888182660E+00
             -0.857371007207911E+00
             -0.804906367996143E+00
             -0.323061129797584E+01
             -0.148750755293667E+00
              0.171113425411785E+01
              0.827599267419537E+00
             -0.207551928001923E+00
             -0.218690663784970E+00
              0.902643633025928E+00
              0.129793291123631E+01
             -0.797840161664728E+00
             -0.258129642832744E+00
             -0.739480638911175E+00
             -0.674204488111481E+00
             -0.593478284010621E+00
              0.217267449961251E+00
              0.140649802516131E+01
             -0.132160047028068E+01
             -0.110798973194035E+01
              0.723372498480916E-01
             -0.297098087041148E+00
             -0.347576632925294E+00
             -0.180652709507493E+01
              0.127533335383470E+01
              0.402633897253146E+00
              0.192125242120026E+00
              0.105043037655708E+01
             -0.668905474482207E+00
              0.676992904325588E+00
              0.586122820868331E+00
              0.314268879592703E-01
             -0.167511843448389E+00
              0.167779231766462E+00
             -0.316838609427227E+00
              0.106858139544976E+01
             -0.798291347561398E+00
              0.941219385417755E+00
              0.186537713677963E+00
              0.347606097190618E+00
              0.401199263756704E+00
             -0.165485057507500E+01
              0.211419545812432E+00
             -0.135683702723918E+01
             -0.974452841308697E+00
             -0.965676045224980E+00
             -0.106878588626962E+01
             -0.192773775550847E-02
              0.385534902215350E+00
              0.101027472229339E+01
              0.145868784378118E+00
              0.305953278852883E+00
             -0.140442668142300E+01
             -0.562747649245797E+00
              0.658111973811641E+00
             -0.759109004545460E-01
             -0.685838555403189E-01
             -0.196974094270564E+00
              0.719448612139504E+00
             -0.184099194802347E+01
              0.265041908533471E+00
              0.411948760437276E+00
              0.790418675231381E+00
              0.747429512425975E+00
             -0.114742149517588E+01
              0.326064659914361E+00
              0.134109461157063E+00
              0.145527824342267E+00
              0.122029385724787E+00
             -0.395961074303559E+00
             -0.875969783336054E+00
              0.364461616688581E+00
              0.117505134686904E+01
             -0.194923832863765E-01
              0.279976518369695E+00
              0.255072163350087E+00
             -0.627381744164126E+00
             -0.666119702915703E+00
             -0.249082572933302E+01
             -0.769940014319606E+00
             -0.119679034055312E+01
             -0.123643399819851E+00
             -0.138689381716756E+01
              0.152947546567905E+01
             -0.683022285646185E+00
             -0.111941509752937E+01
             -0.317534094906396E+01
              0.136217300256188E+01
              0.302676225602510E+00
              0.209742808806796E+00
             -0.124086803529443E+01
              0.877434900482008E-01
             -0.344878302145615E+00
             -0.635250047944109E+00
              0.171073847211288E+00
              0.660241854293782E+00
              0.100526814275555E+00
             -0.425604297574587E+00
              0.801808677170452E-01
              0.327473246317913E-01
              0.215026123584719E+00
             -0.135818690718220E+01
              0.149550293720496E+01
             -0.842741165291414E+00
             -0.540146344975925E+00
             -0.105224146078022E+01
             -0.222916839141639E+01
              0.949222151644127E-01
             -0.116638943496121E+01
             -0.368516471685294E+00
              0.623382217540456E+00
             -0.549736710214180E+00
             -0.232517052752703E+00
             -0.269591948683660E+00
             -0.397068402394909E+00
              0.695261980120141E-01
              0.105171133756317E+01
             -0.101764577100831E+01
              0.211471426748114E+01
             -0.513609261106923E+00
              0.654850376746684E+00
             -0.367081198630277E+00
              0.238031410545018E+00
             -0.240000784368841E+00
              0.897790996916905E+00
              0.126713426744220E+01
              0.365510570682125E+00
              0.886538653012507E+00
             -0.595102993462237E+00
             -0.154701218546735E+00
             -0.476529603441572E+00
              0.129355619854031E+01
              0.111208633296868E+01
              0.810690733273272E+00
             -0.261181298451884E+00
             -0.519534977107634E+00
              0.485650964493655E+00
             -0.595595991327606E+00
             -0.296183783102107E+00
             -0.115931556777159E+00
             -0.721582386199762E+00
              0.989253693203345E+00
             -0.221384598144716E+00
              0.728109641483553E+00
              0.454000155479143E+00
              0.305017732165946E+00
             -0.682238589748036E+00
              0.497324210046062E+00
             -0.278206735839129E+00
             -0.147164176889551E+00
             -0.203558499622734E-01
             -0.970479810608026E+00
              0.156618871852598E+01
             -0.536639969298556E+00
              0.792490840994198E-03
              0.503704808580570E+00
              0.430324731850591E+00
              0.157152478361015E+01
             -0.439366691353172E+00
              0.151774655565324E+01
              0.134988104601257E+01
             -0.188325244292334E+01
              0.138540105725484E+00
             -0.370258181060018E+00
              0.246542387900420E+00
              0.930080511224078E-01
              0.434753342065939E+00
              0.129790634684261E+01
              0.202667140844872E+01
             -0.147997000636046E+01
              0.153873750379525E+01
             -0.204658772572363E+01
             -0.175537230707918E+01
             -0.303538942545871E+00
              0.222928102163200E-01
              0.159878308189002E+01
              0.653858643004600E+00
             -0.261113373848104E+00
             -0.168795469523312E+01
              0.136138382353317E+01
             -0.833716058189905E+00
              0.406261190654096E-01
             -0.107613832108328E+00
              0.263469171759075E+01
             -0.450500000609528E+00
             -0.213435188630404E+01
              0.613004176497686E+00
             -0.328905354176978E+01
              0.262279971228863E+00
             -0.778723287163759E+00
             -0.360398930448296E+00
             -0.524152088276338E+00
             -0.120353225459468E+01
              0.735693923345094E+00
             -0.740316511622283E+00
             -0.285852826601973E+00
             -0.153152660242981E+01
             -0.820466206929478E-01
             -0.110333658729353E+01
             -0.156638150700682E+01
             -0.214646262651912E+01
              0.165508394075546E+00
             -0.756336967906150E+00
              0.212906613765849E+00
             -0.283131005609169E+00
             -0.169114953720588E+01
             -0.131002923120565E+01
             -0.115827838623183E+01
             -0.119219929356220E+01
              0.105993185784187E+01
              0.109968893251039E+00
             -0.100573833837765E+01
             -0.504574230748680E+00
             -0.562897830268637E+00
              0.850219477635546E+00
             -0.612133427095823E+00
             -0.863271578289484E-01
             -0.645980633983154E+00
             -0.796894932335777E+00
             -0.848986542648278E+00
              0.819481398764178E+00
             -0.258380112055903E+00
             -0.187378020655371E+01
              0.156809388870208E+01
              0.912930026059148E+00
              0.554795429045924E-01
             -0.165343915292283E+01
             -0.150678742400491E+01
              0.103992741402463E+00
              0.119276223412559E-01
             -0.689265803585588E+00
             -0.881917752786443E+00
              0.605551957721934E+00
             -0.988529798069688E-01
              0.552465406729933E+00
              0.969769753789162E+00
              0.707337808852829E+00
              0.500428414660465E+00
              0.441104876538050E+00
             -0.455470238006595E+00
             -0.311039087294268E+00
             -0.379450336064935E+00
             -0.773794170471971E+00
             -0.946797266386083E+00
             -0.122359807633950E+01
             -0.724334772435410E+00
             -0.255760194825180E+00
             -0.150260497203874E+01
             -0.350254683070908E+00
              0.735148335930904E+00
             -0.172364517070387E+01
              0.746366011116335E+00
              0.602086547949694E+00
             -0.146706170961194E+01
             -0.112772568583870E+01
             -0.469731985588796E+00
              0.247348880722598E+00
             -0.836759221501355E+00
              0.152968827310264E+01
              0.134950196864319E+01
             -0.156451439601883E+01
              0.828678806646208E+00
              0.732523313695984E+00
              0.208334936123081E+00
              0.376776753157976E+00
             -0.866887855782526E+00
             -0.313280564364697E+00
              0.139959459625940E+00
              0.420394053288712E+00
              0.833397879681006E+00
             -0.109427649933356E+01
             -0.232265777671234E+00
              0.322679916756825E+00
              0.210295482328221E+00
             -0.699333570224149E+00
              0.376223820112129E+00
             -0.502642057186511E+00
             -0.366442927469941E+00
             -0.233585389248603E-01
             -0.125124816234849E+01
             -0.131826297003557E-01
             -0.173531338368248E+00
             -0.312239318754614E+00
              0.328678712327620E+00
             -0.106779760896758E+01
              0.119676573763403E+01
             -0.438333179437876E+00
             -0.273162647921806E+01
             -0.174348415380465E+01
              0.706431856183358E+00
             -0.856143426017582E+00
             -0.439756569770672E+00
             -0.473015199854529E+00
             -0.396441036876755E+00
             -0.210785207961393E+01
             -0.166249572708566E-01
             -0.125567826977060E+01
             -0.695954650034381E+00
              0.395526666981406E+00
              0.161912544608991E+01
              0.100861549029184E+00
              0.583339100685007E-01
              0.122275646924356E+01
             -0.118662245348946E+01
              0.566783921441022E+00
              0.116474449742749E+00
             -0.108266786030448E+01
             -0.628755086694174E+00
              0.396036326930659E+00
              0.623527541232567E-01
              0.345654650991156E+00
              0.272676274045200E+00
             -0.473503081011779E+00
             -0.681645303967109E+00
             -0.101658339275918E+01
              0.101559103448088E+01
             -0.138267823694744E+01
             -0.102497173309872E+01
              0.296546997455484E+00
             -0.170736319250517E+01
              0.482557445081936E+00
              0.122149139481098E+01
             -0.237240888585957E+00
              0.406289423381538E+00
             -0.687499284724353E+00
             -0.451754972250106E+00
              0.214203467118653E+00
              0.737241571975627E+00
             -0.742702774431758E+00
              0.456707765308267E+00
             -0.286648005838130E+00
              0.156206813144481E+00
              0.377569933476038E+00
              0.186929346411317E+00
             -0.259642100515270E+00
             -0.180110087155043E-01
              0.236910619214040E+00
              0.570235185398185E+00
             -0.143909374666902E+01
             -0.379968046291808E-01
              0.106845605930150E+01
             -0.178575059528419E+01
              0.666883136353642E+00
             -0.230873110160087E+01
             -0.237010977075568E+00
             -0.288465629794235E+00
             -0.526227746642292E-01
             -0.265572382742880E+00
             -0.557588832616173E+00
             -0.224586891076866E+00
              0.239442653683967E+00
             -0.528062144732391E+00
              0.218185273511661E+00
              0.184247762591652E+01
             -0.115412472577187E+01
             -0.509484359983987E+00
              0.853068221574691E+00
              0.424728357512989E+00
              0.866913130533348E+00
              0.417420231991265E+00
              0.329639987069661E+00
             -0.288533016441285E+00
             -0.996577269240693E+00
             -0.915084165883293E+00
             -0.712891071427473E+00
              0.121795009219535E+00
             -0.861395065488788E+00
             -0.241073527811192E+00
              0.125278654410947E+00
              0.498124626678466E+00
             -0.136530661695732E+00
              0.120229176431803E+01
             -0.133889224923005E+01
             -0.190929946427376E-01
             -0.148002671626453E+00
              0.639243572129872E+00
             -0.860901340999432E+00
             -0.562572781002187E+00
              0.258435085954641E+00
              0.909142556655234E+00
              0.154088108090159E+01
              0.608046835458254E+00
              0.936155746311838E+00
             -0.499884338327953E+00
              0.128419853095628E+01
              0.128652714720652E+01
             -0.177135701432292E-01
              0.611983506772448E+00
              0.761315221980290E+00
             -0.416553011610728E+00
              0.297701827383788E+00
              0.133037486327345E+01
             -0.429092629023383E+00
             -0.125563303570299E+00
             -0.126291031566213E+01
              0.446468028662848E+00
             -0.312849348240730E+00
              0.438534064273818E+00
              0.265690830180274E-01
             -0.794566292753031E+00
              0.921056052729103E+00
              0.797045516056937E+00
             -0.641601873907819E+00
              0.351051318789519E+00
             -0.121909006590137E+01
             -0.110173319979842E+01
              0.507076324000069E+00
             -0.138224592729546E+01
             -0.701500528731211E+00
              0.188042228079475E-01
              0.174380292970055E+01
             -0.457534742847021E+00
             -0.226664053091640E+00
             -0.418377237490538E+00
              0.226705245237946E+01
              0.373880706263165E+00
             -0.862504755071368E+00
              0.144083162024543E+01
              0.126532469605539E+01
              0.666651351866252E+00
              0.162027210834439E+01
              0.177964527913140E+01
             -0.666687611015704E-01
             -0.582515183359982E+00
             -0.503840902825095E+00
              0.563669875321354E+00
              0.789405087397213E+00
             -0.150416449570439E+00
             -0.495038164469057E+00
             -0.116553515222902E+01
             -0.413193658451008E+00
             -0.942432512699545E+00
              0.685785390653206E+00
              0.361235631502229E+00
              0.122765799571421E+01
              0.276149804538858E+00
             -0.461857502907735E+00
             -0.174084397643504E+00
              0.807700515274957E+00
              0.209636086665402E+00
              0.124902515918750E+01
              0.112196543516612E+01
             -0.169001489570492E+00
             -0.189203550459235E+00
             -0.207543193411925E+01
              0.997693016010033E+00
             -0.279856509873611E-03
              0.117594224673146E+01
             -0.519773461636980E+00
             -0.134773839087089E+01
              0.391436236546826E+00
              0.147876459179671E+01
             -0.516376792878602E+00
              0.133732342882894E+01
             -0.145811636475925E+01
             -0.526969444495966E+00
             -0.174056114199018E+01
              0.321575003170064E+00
              0.913046134672459E-01
              0.178365442183732E+00
             -0.126061880943982E+01
              0.188703484321772E+01
              0.109407729006612E+01
              0.121626924188099E+00
             -0.111425296663754E+01
              0.419131264830415E+00
             -0.367239898283130E+00
             -0.304948718192882E+00
             -0.556818481860223E+00
              0.334197108595661E+00
             -0.352038480407990E+00
             -0.369306400901643E+00
              0.480419773476932E+00
              0.474220769488017E+00
             -0.182088486612889E+01
              0.400437055057911E+00
              0.133897498040524E+01
              0.856051330955109E+00
             -0.263049695652363E+00
             -0.426506586441791E-01
             -0.747121199474431E+00
              0.112748810003847E+01
              0.180960210072809E+00
             -0.588927906676764E-01
             -0.122496655340791E+00
              0.219659913049078E+01
             -0.157000494237266E+00
              0.446002234741104E+00
              0.151499698317513E+01
              0.195146680988462E+01
              0.120451224457787E+01
              0.789688832219418E+00
             -0.130498095188315E+01
             -0.941774783692544E+00
              0.735631157512132E+00
              0.109599591063818E+00
              0.618977936079991E+00
              0.256947834957040E+00
              0.132271874016683E+01
             -0.161329088346802E+01
             -0.987411760359698E+00
             -0.237842770294488E+00
             -0.176109682537378E+01
              0.390368329674085E+00
              0.946461025763580E+00
              0.987676030820062E-02
             -0.414049320825185E+00
              0.425051536046538E+00
              0.272820343679795E+01
              0.650251142549934E+00
              0.356944992305438E+00
             -0.950603311414506E+00
             -0.116769944221331E+01
             -0.270510856226252E+00
              0.585253303473060E+00
             -0.119754938140009E+00
              0.539565927835799E+00
              0.717487193671403E+00
             -0.123360904157339E+01
              0.549441745097981E+00
              0.667954556777978E+00
              0.113335550763406E+01
             -0.202583079328866E+00
              0.113130169909383E+00
             -0.140914302234949E+00
             -0.894167783974684E+00
             -0.148353917771412E+01
              0.152657543949290E+01
             -0.207377156015135E+00
             -0.106924628632393E+01
              0.174714438760352E+00
             -0.620283320309224E+00
              0.172951832926523E+01
             -0.464477269404874E+00
             -0.769777369813781E+00
              0.758712597715129E+00
             -0.322912024076077E+00
              0.942357500842952E+00
              0.618686982410992E-01
              0.186461769818483E+01
              0.107089519165615E+01
              0.261561783583232E+00
             -0.801846531726063E+00
              0.584245004402736E+00
             -0.109410525594175E+01
             -0.872187018211705E-01
              0.130343337535932E+01
             -0.514211510362434E+00
             -0.871543919950589E+00
             -0.466999875702687E+00
              0.103756676784709E+01
              0.230736017732882E+00
             -0.164046460964222E+01
              0.693759717568429E+00
              0.121450253389460E+00
              0.228280115191597E+00
             -0.982820394269810E+00
              0.199726773038636E+00
              0.693934742484116E+00
              0.918953323110649E+00
              0.133039947706606E+01
              0.716262052992356E+00
              0.152912590655801E+00
             -0.112648630143702E+01
             -0.849944138096091E+00
             -0.129294704739292E+01
             -0.301686931501616E+00
              0.695466402846181E+00
              0.245503064665153E-02
              0.104964510917493E+01
             -0.649605169869966E+00
              0.341770638576209E+00
             -0.479019903518392E+00
             -0.546512958805833E+00
              0.119528773245496E+01
              0.107258765093746E+00
              0.127029832155883E+01
              0.115207326372738E+00
              0.390145876018416E+00
             -0.322546873018318E+00
              0.121021994023370E+01
             -0.343387627877932E+00
              0.423978887676385E-02
             -0.158091430976108E+01
             -0.139867880673604E+00
              0.140195248072023E+01
              0.129133412249326E+01
              0.514874794780540E+00
             -0.318971847790530E+00
              0.113525033984618E+00
             -0.487619909886365E+00
             -0.409547996885914E+00
              0.182334721882349E+01
              0.159987280947224E+00
             -0.592912190104174E+00
             -0.214369549484216E+01
             -0.845460839243191E+00
             -0.771080068519696E+00
             -0.122569807651165E+01
             -0.120988497117287E+01
             -0.142220961630152E+01
             -0.909549309921027E+00
             -0.552868659683030E+00
             -0.970476081642652E+00
              0.889688811591583E+00
             -0.344404365173975E+00
             -0.167776598141606E+01
              0.840885177017960E+00
             -0.685358819875545E+00
             -0.159955309879471E+01
              0.203239339280096E+01
             -0.516430694740871E+00
              0.298480530289138E+00
              0.760091583615127E+00
              0.287311091557178E+00
              0.533410867280415E+00
              0.259063708055809E-01
              0.280495119646657E-01
             -0.267808032973175E+00
             -0.149734011124877E+01
              0.220160203990326E+00
             -0.241247912203526E+01
              0.147635491321218E+01
             -0.812628747356053E+00
             -0.388129986683309E+00
             -0.422496166740139E+00
              0.459819654963290E+00
             -0.319875284480863E+00
              0.564024244500650E+00
             -0.118568476601368E+01
              0.726198000814877E+00
              0.877795649798007E+00
              0.164364767475708E+00
              0.191144428962625E+00
              0.438414502537730E+00
              0.209354199768995E+00
              0.594612955115505E+00
             -0.821369042604219E-01
             -0.152669408651265E+01
              0.192048773376329E+00
             -0.700075064100687E+00
             -0.634954542558024E-01
              0.114792551957379E+01
             -0.161169362762961E+01
              0.500452869086931E-01
              0.782061815408284E-01
              0.192904538945783E+00
              0.613127204545302E+00
             -0.251536548681792E+00
              0.169678821578687E+01
              0.721370949405569E+00
             -0.285835512992858E+00
             -0.163078771780580E+00
              0.131283858074026E+00
              0.158254006945421E+01
             -0.988288376534332E+00
             -0.204021855908479E+01
              0.592979428851701E+00
             -0.175865139583359E+00
             -0.323912834130599E+00
              0.391388932381291E+00
              0.151982016868914E+01
              0.835613260261766E+00
             -0.342587346011832E+00
             -0.110069254298781E+01
             -0.263383590936572E+00
              0.553794307100751E+00
             -0.366891427119268E+00
             -0.154709599323725E+01
             -0.203105592047605E+00
             -0.198662554017966E+01
             -0.104925512906779E+01
              0.177904443785734E+01
             -0.106390389110519E+01
             -0.145536717983860E+01
             -0.107425803008233E+01
             -0.817363287115596E+00
              0.698381356486038E+00
              0.173250350282055E+01
             -0.210381273827585E+00
              0.535763478897874E+00
             -0.422857744128858E+00
             -0.138160293714874E+01
              0.104875982480886E+01
             -0.989913872103019E+00
              0.494949789061318E+00
              0.569308106945574E+00
             -0.329361777890716E+00
              0.733975616744034E+00
              0.770525472855937E+00
              0.246576272450537E+01
             -0.196163875841238E+00
             -0.116823644069152E+01
             -0.134863811472168E+01
             -0.396981629680075E+00
             -0.869786913185252E+00
              0.187224092985184E+01
             -0.917341295092331E+00
              0.206825027917225E+00
              0.391406127892733E-01
             -0.387045259416880E+00
             -0.175983290411618E+01
             -0.132786505807271E+00
              0.204267124234927E+01
              0.458116575291313E+00
              0.147245094151573E+00
             -0.121116951385362E+01
             -0.110325945678741E+01
             -0.373479248968311E+00
              0.917098319734023E+00
             -0.547500249211476E+00
              0.203704731037062E+01
             -0.978265922449353E+00
              0.395179360387985E+00
             -0.254829182483640E+00
             -0.124794513453270E+01
              0.141028083630250E+00
             -0.114767294438399E+01
             -0.150202151129050E+01
              0.235217460204726E+00
              0.275751403007893E-01
              0.996861560365664E+00
              0.555042774823729E+00
             -0.714754812135593E+00
              0.437564588888204E+00
             -0.181502467802110E+01
             -0.948581169130456E+00
              0.188567931352873E+01
              0.590893081536996E-01
             -0.928268679408273E-01
             -0.496387046148745E+00
             -0.971918883394096E-02
             -0.252941868496556E+00
              0.188332722921507E+01
              0.840929492810470E+00
             -0.163617895892688E+00
              0.184971907367881E-01
             -0.767321550400659E+00
             -0.242148518654712E+00
             -0.124979292333458E+01
              0.105769316240490E+01
              0.134569513932454E+00
              0.147407103164639E+00
              0.394221763326499E+00
             -0.288303576318172E+00
             -0.467286195335155E+00
              0.199679567818950E+00
             -0.227028439563144E+01
             -0.211406604501564E+00
             -0.201956753053955E+00
             -0.121294719697084E+00
              0.969602974977982E+00
              0.131906595496259E+01
              0.365271908081668E+00
             -0.189055715428641E+01
              0.129334973633136E+01
             -0.490447748610252E+00
             -0.751606347796688E+00
             -0.177485713709642E+01
             -0.542711285041041E+00
              0.129612907525453E+01
              0.689112426156628E+00
              0.340895460134561E+00
              0.718654656619148E+00
             -0.113020537866903E+01
             -0.100119629662331E+01
              0.127780651388744E+01
              0.845977602177667E+00
              0.946310342886725E+00
              0.197039912931884E+00
              0.222753171712113E+00
              0.107236152055515E+01
              0.200319445141738E+01
             -0.353430849568939E+00
              0.823200321998545E+00
             -0.620559618444254E+00
             -0.891738640748732E+00
             -0.708379769273515E+00
             -0.692863436793424E+00
             -0.285673937880075E+00
             -0.965805743300876E+00
             -0.376275290938504E+00
             -0.261731561922405E+01
              0.635307429790775E+00
              0.587279725956428E+00
             -0.703402867074834E-01
             -0.746476040397649E+00
             -0.365982128981570E+00
             -0.115063857908777E+01
              0.114394788913659E+00
              0.160663552888973E+01
             -0.379880873236029E+00
             -0.390609286456554E+00
              0.391943463699516E+00
             -0.103822727291584E+01
              0.173828052973670E+01
              0.311798747212128E+00
              0.113878303772236E+00
              0.105504283634937E+01
             -0.135961021241882E+00
              0.119569749135066E+01
              0.415439602041511E+00
             -0.289102605140696E-01
              0.277858337724372E+00
             -0.219307084232354E+00
              0.135379680066699E+01
              0.147235299926773E+00
              0.442929752294382E+00
             -0.189189878115627E+00
              0.214824397628887E+00
             -0.191002885880251E+01
             -0.710797416069722E+00
             -0.101218948660952E+01
              0.101047547142172E+01
             -0.727063119332331E+00
             -0.111617797491678E+01
              0.121637241516241E+01
             -0.278976124395879E+00
              0.837528844528288E+00
             -0.180539936113980E+01
              0.351489516114893E+00
              0.743920086107779E-01
              0.143234823746637E+00
             -0.279245993604151E+00
             -0.135681451423359E+00
              0.101733650084420E+01
              0.577787522237321E-01
             -0.108841890313950E+01
             -0.450259903259916E+00
              0.366815244213182E+00
             -0.234324716567076E+01
             -0.175864464416386E+01
              0.122466405656114E-01
              0.341637988032960E+00
             -0.105291439671386E+01
              0.262759078571975E-01
              0.208309759007660E+01
              0.578253565568653E+00
             -0.109495710251748E+01
              0.154840160029172E+00
             -0.216315269383750E+00
              0.274071050377146E+00
             -0.739716709954363E+00
              0.478653115703801E+00
              0.474503282695165E+00
             -0.176423488112822E+00
              0.229077290179805E+01
             -0.704316303645358E-01
             -0.623956688122451E+00
              0.646898886124710E+00
              0.872628870614475E+00
             -0.647085638995292E+00
             -0.184794935109930E-01
              0.200154370082964E+01
             -0.235346877617051E-01
              0.106067429421912E+01
              0.340256018893658E+00
             -0.130900229258961E+00
             -0.306898855960089E+00
              0.959158986585904E+00
             -0.120857944239158E+01
             -0.355803361879605E-01
             -0.417545041990885E+00
             -0.813388919423734E+00
              0.230265167485547E+00
              0.517982044960392E+00
             -0.409978936595490E-01
             -0.333047579086845E-01
             -0.854933838957817E+00
              0.298289707555346E+00
             -0.307123882547753E-01
             -0.437088012368982E+00
             -0.405904598128359E+00
              0.329970864838264E+00
             -0.522957417132552E-02
             -0.791519786674575E+00
             -0.219539847769864E+01
              0.138369440891431E+00
              0.289469768447565E+00
             -0.995177384674474E+00
             -0.517101911212720E+00
              0.167736211236274E+01
              0.276037225678819E+00
              0.912190210302700E+00
              0.233282730795775E+00
              0.817630974842360E+00
              0.459672785912986E-01
             -0.805812611233633E+00
             -0.265223546134618E+00
              0.105959504717169E+00
              0.642741128029751E+00
              0.150218173598047E+01
              0.100230981954774E+01
              0.668433510865931E-01
              0.233962209324118E+00
              0.123909616816992E+01
              0.578300621091503E+00
             -0.140113672419215E+01
             -0.565373880024167E+00
              0.216947343386323E+00
              0.207767282913277E+00
              0.511397333018568E+00
             -0.103674138828217E+01
              0.834755505738134E-01
              0.855150609799774E+00
              0.986167646453176E+00
             -0.857284774153407E+00
              0.751732765668036E-01
             -0.531866770989833E-01
             -0.434961260758389E+00
             -0.500304958191652E+00
             -0.226624755917610E+00
             -0.277629885250385E+00
              0.238252592863589E+00
              0.857636222083483E+00
             -0.666558346998901E+00
              0.165453545520612E+01
              0.679491088045966E+00
              0.542913087964903E+00
              0.767108474097919E+00
              0.487387565140756E+00
              0.732939206303529E+00
              0.112907744599551E+01
             -0.966948458000880E+00
              0.127951888378367E+01
             -0.232396019918725E+01
              0.636988327075388E+00
             -0.212966130999729E+01
              0.163580244844572E+01
              0.160025445514008E+01
             -0.164197246313869E+00
             -0.947665685068866E+00
             -0.879242363771233E+00
             -0.108858221332445E+01
             -0.134318749628698E+01
              0.111634774869415E+01
              0.868865321825747E+00
              0.497240014453613E+00
              0.506618902901351E+00
              0.930778718428887E+00
             -0.837932993887117E+00
             -0.287517392261836E+00
              0.108249342379787E+01
             -0.249452966245493E+00
              0.101209725026584E+01
              0.158413592978290E+01
             -0.787891606801159E-01
             -0.154465010883264E+01
              0.128355303633704E+00
              0.296526647565287E-01
             -0.212769008018046E+00
              0.631434998546601E-01
             -0.130845792509218E+01
             -0.149962297669914E+00
              0.291830695815798E+00
              0.306889101490386E+00
              0.102155549636235E+01
             -0.860635892159948E+00
              0.102776959631228E+01
             -0.778026964405699E+00
              0.565368181172252E+00
              0.891540937026104E+00
 
 BEEF-vdW xc energy contributions
           1 :   -14.1839688364053     
           2 :    11.6337554831811     
           3 :   -7.96258250236456     
           4 :    4.52351250770341     
           5 :   -1.96895561817411     
           6 :   0.427994819332065     
           7 :   0.252208342522668     
           8 :  -0.374663337487865     
           9 :   0.267636846929760     
          10 :  -0.185306963359720     
          11 :   0.232895320681951     
          12 :  -0.374189259311100     
          13 :   0.502272044953392     
          14 :  -0.526615440780740     
          15 :   0.416651343779773     
          16 :  -0.215356429570660     
          17 :   1.230909365258626E-002
          18 :   0.107710061180921     
          19 :  -0.115248247286814     
          20 :   4.295323758435643E-002
          21 :   4.449422453079777E-002
          22 :  -9.543359749887159E-002
          23 :   9.480972061891890E-002
          24 :  -6.348715273615468E-002
          25 :   3.572257337713935E-002
          26 :  -3.757686486924428E-002
          27 :   7.338051023394598E-002
          28 :  -0.126232736035719     
          29 :   0.170223721258061     
          30 :  -0.186822302723767     
          31 :   -1.95280359023078     
          32 :   -1.22558769433117     

     Writing output data file ./pwscf.save/
 
     init_run     :     66.72s CPU     69.36s WALL (       1 calls)
     electrons    :    550.89s CPU    598.51s WALL (       1 calls)
     forces       :     27.67s CPU     29.98s WALL (       1 calls)

     Called by init_run:
     wfcinit      :      2.24s CPU      2.31s WALL (       1 calls)
     potinit      :     56.06s CPU     58.02s WALL (       1 calls)
     hinit0       :      6.88s CPU      7.01s WALL (       1 calls)

     Called by electrons:
     c_bands      :     86.66s CPU     87.68s WALL (      16 calls)
     sum_band     :     40.65s CPU     46.84s WALL (      16 calls)
     v_of_rho     :    340.59s CPU    371.64s WALL (      17 calls)
     newd         :     15.63s CPU     21.98s WALL (      17 calls)
     PAW_pot      :      2.16s CPU      2.16s WALL (      17 calls)
     mix_rho      :    115.66s CPU    120.88s WALL (      16 calls)
     vdW_kernel   :     33.52s CPU     33.52s WALL (       1 calls)

     Called by c_bands:
     init_us_2    :      1.52s CPU      1.55s WALL (      33 calls)
     regterg      :     83.34s CPU     84.36s WALL (      16 calls)

     Called by *egterg:
     rdiaghg      :      0.02s CPU      0.02s WALL (      92 calls)
     h_psi        :     75.29s CPU     75.32s WALL (      93 calls)
     s_psi        :      2.23s CPU      2.23s WALL (      93 calls)
     g_psi        :      0.26s CPU      0.26s WALL (      76 calls)

     Called by h_psi:
     h_psi:calbec :      1.61s CPU      1.61s WALL (      93 calls)
     vloc_psi     :     71.01s CPU     71.02s WALL (      93 calls)
     add_vuspsi   :      2.25s CPU      2.25s WALL (      93 calls)

     General routines
     calbec       :      2.07s CPU      2.07s WALL (     113 calls)
     fft          :    287.23s CPU    287.25s WALL (    2932 calls)
     ffts         :     50.45s CPU     50.46s WALL (     525 calls)
     fftw         :     68.27s CPU     68.27s WALL (     708 calls)
 
     Parallel routines
 
     PWSCF        :  19m55.53s CPU  21m48.83s WALL

 
   This run was terminated on:  10:22: 5   4Jan2023            

=------------------------------------------------------------------------------=
   JOB DONE.
=------------------------------------------------------------------------------=
