
     Program PWSCF v.6.7MaX starts on 20Dec2022 at 16:10:58 

     This program is part of the open-source Quantum ESPRESSO suite
     for quantum simulation of materials; please cite
         "P. Giannozzi et al., J. Phys.:Condens. Matter 21 395502 (2009);
         "P. Giannozzi et al., J. Phys.:Condens. Matter 29 465901 (2017);
          URL http://www.quantum-espresso.org", 
     in publications or presentations arising from this work. More details at
     http://www.quantum-espresso.org/quote

     Parallel version (MPI), running on     1 processors

     MPI processes distributed on     1 nodes
     Reading input from cch2-gas-ensemble.in
Warning: card &CELL ignored
Warning: card / ignored

     Current dimensions of program PWSCF are:
     Max number of different atomic species (ntypx) = 10
     Max number of k-points (npk) =  40000
     Max angular momentum in pseudopotentials (lmaxx) =  3
     file C.pbe-n-kjpaw_psl.1.0.0.UPF: wavefunction(s)  2S 2P renormalized
     file H.pbe-kjpaw_psl.1.0.0.UPF: wavefunction(s)  1S renormalized

     **************************************************************************
     Initializing libbeef V0.1.2 with the BEEF-vdW functional.
     Citation: Wellendorff et al., PRB 85, 235149 (2012).
     **************************************************************************


     IMPORTANT: XC functional enforced from input :
     Exchange-correlation= BEEF-VDW
                           (   1   4  43  14   2   0   0)
     Any further DFT definition will be discarded
     Please, verify this is what you really want


     gamma-point specific algorithms are used

     Subspace diagonalization in iterative solution of the eigenvalue problem:
     a serial algorithm will be used

 
     G-vector sticks info
     --------------------
     sticks:   dense  smooth     PW     G-vecs:    dense   smooth      PW
     Sum       31021   31021   7763              4174409  4174409  521939
 


     bravais-lattice index     =            0
     lattice parameter (alat)  =      40.6828  a.u.
     unit-cell volume          =   66486.0569 (a.u.)^3
     number of atoms/cell      =            4
     number of atomic types    =            2
     number of electrons       =        10.00
     number of Kohn-Sham states=            9
     kinetic-energy cutoff     =      60.0000  Ry
     charge density cutoff     =     240.0000  Ry
     scf convergence threshold =      1.0E-06
     mixing beta               =       0.7000
     number of iterations used =            8  local-TF  mixing
     Exchange-correlation= BEEF-VDW
                           (   1   4  43  14   2   0   0)

     celldm(1)=  40.682763  celldm(2)=   0.000000  celldm(3)=   0.000000
     celldm(4)=   0.000000  celldm(5)=   0.000000  celldm(6)=   0.000000

     crystal axes: (cart. coord. in units of alat)
               a(1) = (   1.000000   0.000000   0.000000 )  
               a(2) = (   0.000000   0.981306   0.000000 )  
               a(3) = (   0.000000   0.000000   1.006224 )  

     reciprocal axes: (cart. coord. in units 2 pi/alat)
               b(1) = (  1.000000  0.000000  0.000000 )  
               b(2) = (  0.000000  1.019050  0.000000 )  
               b(3) = (  0.000000  0.000000  0.993815 )  


     PseudoPot. # 1 for C  read from file:
     /users/bkreitz1/quantum-espresso/potentials/C.pbe-n-kjpaw_psl.1.0.0.UPF
     MD5 check sum: a169b0ebad56f5ec0d79c4633f80bf22
     Pseudo is Projector augmented-wave + core cor, Zval =  4.0
     Generated using 'atomic' code by A. Dal Corso  v.6.7MaX
     Shape of augmentation charge: PSQ
     Using radial grid of 1073 points,  4 beta functions with: 
                l(1) =   0
                l(2) =   0
                l(3) =   1
                l(4) =   1
     Q(r) pseudized with 0 coefficients 


     PseudoPot. # 2 for H  read from file:
     /users/bkreitz1/quantum-espresso/potentials/H.pbe-kjpaw_psl.1.0.0.UPF
     MD5 check sum: ae98473e6dc62675f0d0baffdab24f65
     Pseudo is Projector augmented-wave, Zval =  1.0
     Generated using 'atomic' code by A. Dal Corso  v.6.7MaX
     Shape of augmentation charge: PSQ
     Using radial grid of  929 points,  2 beta functions with: 
                l(1) =   0
                l(2) =   0
     Q(r) pseudized with 0 coefficients 


     atomic species   valence    mass     pseudopotential
        C              4.00    12.01100     C ( 1.00)
        H              1.00     1.00800     H ( 1.00)

     No symmetry found



   Cartesian axes

     site n.     atom                  positions (alat units)
         1           C   tau(   1) = (   0.5318409   0.5041981   0.4618443  )
         2           C   tau(   2) = (   0.5054003   0.4933973   0.5149628  )
         3           H   tau(   3) = (   0.4625839   0.5168908   0.5279021  )
         4           H   tau(   4) = (   0.5254375   0.4604882   0.5480694  )

     number of k points=     1  Gaussian smearing, width (Ry)=  0.0050
                       cart. coord. in units 2pi/alat
        k(    1) = (   0.0000000   0.0000000   0.0000000), wk =   2.0000000

     Dense  grid:  2087205 G-vectors     FFT dimensions: ( 216, 200, 216)

     Estimated max dynamical RAM per process >       3.13 GB

     Initial potential from superposition of free atoms

     starting charge    9.99990, renormalised to   10.00000

     negative rho (up, down):  7.220E-03 0.000E+00


     %%%%%%%%%%%%%%%%%%%%%%%%%%%%%%%%%%%%%%%%%%%%%%%%%%%%%%%%%%%%%%%%%%%%%%%%
     %                                                                      %
     % You are using vdW-DF, which was implemented by the Thonhauser group. %
     % Please cite the following two papers that made this development      %
     % possible and the two reviews that describe the various versions:     %
     %                                                                      %
     %   T. Thonhauser et al., PRL 115, 136402 (2015).                      %
     %   T. Thonhauser et al., PRB 76, 125112 (2007).                       %
     %   K. Berland et al., Rep. Prog. Phys. 78, 066501 (2015).             %
     %   D.C. Langreth et al., J. Phys.: Condens. Matter 21, 084203 (2009). %
     %                                                                      %
     %                                                                      %
     % If you are calculating the stress with vdW-DF, please also cite:     %
     %                                                                      %
     %   R. Sabatini et al., J. Phys.: Condens. Matter 24, 424209 (2012).   %
     %                                                                      %
     %%%%%%%%%%%%%%%%%%%%%%%%%%%%%%%%%%%%%%%%%%%%%%%%%%%%%%%%%%%%%%%%%%%%%%%%


     Starting wfcs are   10 randomized atomic wfcs
     Checking if some PAW data can be deallocated... 

     total cpu time spent up to now is       65.9 secs

     Self-consistent Calculation

     iteration #  1     ecut=    60.00 Ry     beta= 0.70
     CG style diagonalization
     ethr =  1.00E-02,  avg # of iterations =  3.7

     negative rho (up, down):  5.829E-03 0.000E+00

     total cpu time spent up to now is      103.6 secs

     total energy              =     -40.11144914 Ry
     estimated scf accuracy    <       0.59150248 Ry

     iteration #  2     ecut=    60.00 Ry     beta= 0.70
     CG style diagonalization
     ethr =  5.92E-03,  avg # of iterations =  3.0

     negative rho (up, down):  4.836E-03 0.000E+00

     total cpu time spent up to now is      138.8 secs

     total energy              =     -40.11894817 Ry
     estimated scf accuracy    <       0.11915752 Ry

     iteration #  3     ecut=    60.00 Ry     beta= 0.70
     CG style diagonalization
     ethr =  1.19E-03,  avg # of iterations =  3.2

     negative rho (up, down):  7.815E-03 0.000E+00

     total cpu time spent up to now is      174.8 secs

     total energy              =     -40.12662593 Ry
     estimated scf accuracy    <       0.01920934 Ry

     iteration #  4     ecut=    60.00 Ry     beta= 0.70
     CG style diagonalization
     ethr =  1.92E-04,  avg # of iterations =  4.1

     negative rho (up, down):  1.973E-02 0.000E+00

     total cpu time spent up to now is      213.7 secs

     total energy              =     -40.12547051 Ry
     estimated scf accuracy    <       0.00776236 Ry

     iteration #  5     ecut=    60.00 Ry     beta= 0.70
     CG style diagonalization
     ethr =  7.76E-05,  avg # of iterations =  3.9

     negative rho (up, down):  4.573E-02 0.000E+00

     total cpu time spent up to now is      251.9 secs

     total energy              =     -40.12598814 Ry
     estimated scf accuracy    <       0.00282146 Ry

     iteration #  6     ecut=    60.00 Ry     beta= 0.70
     CG style diagonalization
     ethr =  2.82E-05,  avg # of iterations =  3.8

     negative rho (up, down):  6.788E-02 0.000E+00

     total cpu time spent up to now is      290.0 secs

     total energy              =     -40.12649895 Ry
     estimated scf accuracy    <       0.00107298 Ry

     iteration #  7     ecut=    60.00 Ry     beta= 0.70
     CG style diagonalization
     ethr =  1.07E-05,  avg # of iterations =  3.9

     negative rho (up, down):  6.274E-02 0.000E+00

     total cpu time spent up to now is      327.8 secs

     total energy              =     -40.12623321 Ry
     estimated scf accuracy    <       0.00046714 Ry

     iteration #  8     ecut=    60.00 Ry     beta= 0.70
     CG style diagonalization
     ethr =  4.67E-06,  avg # of iterations =  4.1

     negative rho (up, down):  4.494E-02 0.000E+00

     total cpu time spent up to now is      366.1 secs

     total energy              =     -40.12588702 Ry
     estimated scf accuracy    <       0.00014104 Ry

     iteration #  9     ecut=    60.00 Ry     beta= 0.70
     CG style diagonalization
     ethr =  1.41E-06,  avg # of iterations =  4.4

     negative rho (up, down):  3.044E-02 0.000E+00

     total cpu time spent up to now is      404.9 secs

     total energy              =     -40.12576974 Ry
     estimated scf accuracy    <       0.00006053 Ry

     iteration # 10     ecut=    60.00 Ry     beta= 0.70
     CG style diagonalization
     ethr =  6.05E-07,  avg # of iterations =  3.9

     negative rho (up, down):  2.139E-02 0.000E+00

     total cpu time spent up to now is      442.2 secs

     total energy              =     -40.12577736 Ry
     estimated scf accuracy    <       0.00002405 Ry

     iteration # 11     ecut=    60.00 Ry     beta= 0.70
     CG style diagonalization
     ethr =  2.41E-07,  avg # of iterations =  3.2

     negative rho (up, down):  1.611E-02 0.000E+00

     total cpu time spent up to now is      477.7 secs

     total energy              =     -40.12579390 Ry
     estimated scf accuracy    <       0.00000903 Ry

     iteration # 12     ecut=    60.00 Ry     beta= 0.70
     CG style diagonalization
     ethr =  9.03E-08,  avg # of iterations =  3.8

     negative rho (up, down):  1.370E-02 0.000E+00

     total cpu time spent up to now is      514.5 secs

     total energy              =     -40.12579973 Ry
     estimated scf accuracy    <       0.00000334 Ry

     iteration # 13     ecut=    60.00 Ry     beta= 0.70
     CG style diagonalization
     ethr =  3.34E-08,  avg # of iterations =  3.4

     negative rho (up, down):  1.352E-02 0.000E+00

     total cpu time spent up to now is      550.4 secs

     total energy              =     -40.12580012 Ry
     estimated scf accuracy    <       0.00000132 Ry

     iteration # 14     ecut=    60.00 Ry     beta= 0.70
     CG style diagonalization
     ethr =  1.32E-08,  avg # of iterations =  3.3

     negative rho (up, down):  1.256E-02 0.000E+00

     total cpu time spent up to now is      578.4 secs

     End of self-consistent calculation

          k = 0.0000 0.0000 0.0000 (260970 PWs)   bands (ev):

   -19.9285 -13.8574 -12.0219  -7.5971  -7.3314  -4.1566  -1.2068  -0.8758
    -0.2976

     the Fermi energy is    -5.1373 ev

!    total energy              =     -40.12580152 Ry

     total all-electron energy =      -155.653987 Ry
     estimated scf accuracy    <       0.00000036 Ry
     smearing contrib. (-TS)   =      -0.00000000 Ry
     internal energy E=F+TS    =     -40.12580152 Ry

     The total energy is F=E-TS. E is the sum of the following terms:
     one-electron contribution =     -71.70648748 Ry
     hartree contribution      =      37.01986995 Ry
     xc contribution           =     -10.76560791 Ry
     ewald contribution        =      18.45178536 Ry
     one-center paw contrib.   =     -13.12536144 Ry

     convergence has been achieved in  14 iterations

     negative rho (up, down):  1.256E-02 0.000E+00

     Forces acting on atoms (cartesian axes, Ry/au):

     atom    1 type  1   force =     0.00084861    0.00051795    0.00125140
     atom    2 type  1   force =     0.00190149   -0.00516552    0.00595878
     atom    3 type  2   force =    -0.00015271   -0.00000700   -0.00101555
     atom    4 type  2   force =    -0.00259738    0.00465457   -0.00619462

     Total force =     0.011670     Total SCF correction =     0.000109

     negative rho (up, down):  1.256E-02 0.000E+00

     negative rho (up, down):  1.256E-02 0.000E+00

     negative rho (up, down):  1.256E-02 0.000E+00

     negative rho (up, down):  1.256E-02 0.000E+00

     negative rho (up, down):  1.256E-02 0.000E+00

     negative rho (up, down):  1.256E-02 0.000E+00

     negative rho (up, down):  1.256E-02 0.000E+00

     negative rho (up, down):  1.256E-02 0.000E+00

     negative rho (up, down):  1.256E-02 0.000E+00

     negative rho (up, down):  1.256E-02 0.000E+00

     negative rho (up, down):  1.256E-02 0.000E+00

     negative rho (up, down):  1.256E-02 0.000E+00

     negative rho (up, down):  1.256E-02 0.000E+00

     negative rho (up, down):  1.256E-02 0.000E+00

     negative rho (up, down):  1.256E-02 0.000E+00

     negative rho (up, down):  1.256E-02 0.000E+00

     negative rho (up, down):  1.256E-02 0.000E+00

     negative rho (up, down):  1.256E-02 0.000E+00

     negative rho (up, down):  1.256E-02 0.000E+00

     negative rho (up, down):  1.256E-02 0.000E+00

     negative rho (up, down):  1.256E-02 0.000E+00

     negative rho (up, down):  1.256E-02 0.000E+00

     negative rho (up, down):  1.256E-02 0.000E+00

     negative rho (up, down):  1.256E-02 0.000E+00

     negative rho (up, down):  1.256E-02 0.000E+00

     negative rho (up, down):  1.256E-02 0.000E+00

     negative rho (up, down):  1.256E-02 0.000E+00

     negative rho (up, down):  1.256E-02 0.000E+00

     negative rho (up, down):  1.256E-02 0.000E+00

     negative rho (up, down):  1.256E-02 0.000E+00

     negative rho (up, down):  1.256E-02 0.000E+00

     negative rho (up, down):  1.256E-02 0.000E+00

     negative rho (up, down):  1.256E-02 0.000E+00

     negative rho (up, down):  1.256E-02 0.000E+00
 BEEFens 2000 ensemble energies
             -0.836096844811137E+00
             -0.236429108013381E-01
             -0.157769054192130E+00
              0.557514079146868E+00
             -0.266718033227549E+00
             -0.182089252296207E+00
             -0.629494208079738E+00
             -0.125432821402205E+01
             -0.401616852220004E+00
             -0.434302470458268E+00
             -0.456575050461803E+00
              0.940657724511146E-01
              0.469582552741408E-01
             -0.929836703138469E-01
              0.495561791857480E-01
              0.597804307168462E+00
             -0.237975202484903E+00
             -0.822077086594799E-01
              0.321731973889680E+00
             -0.139944253086955E+01
              0.714032407367843E+00
             -0.219690169431070E+00
             -0.806993066791070E-01
             -0.104103853560795E+00
              0.648598651686054E-01
             -0.530011073259351E-01
              0.111575545484520E+01
             -0.319877898411294E+00
             -0.899558531354261E-01
             -0.725390988851063E+00
              0.826660913542348E+00
             -0.919464659734226E-02
             -0.529771811129714E+00
              0.203455531069801E+00
             -0.356247796539315E-01
              0.402040028859196E+00
              0.394084997867097E-01
             -0.289837858257260E-01
              0.518756911090374E+00
             -0.124288385267417E+01
              0.696151753035618E+00
              0.152727615093190E+00
             -0.192085493119745E+00
             -0.356521994194814E+00
              0.156970270150326E+00
             -0.240634926282820E+00
              0.662176250196647E+00
              0.441263640577366E+00
             -0.207048802766645E+00
             -0.414752944124901E+00
             -0.392701607085997E+00
             -0.486554589646480E+00
              0.322771462341247E+00
             -0.663861332242117E+00
              0.216771260357334E+00
              0.779773072402348E+00
              0.984993562894198E+00
              0.398200982624166E+00
              0.205397256349041E+00
              0.431337968375103E+00
              0.116642656279136E+01
              0.183991557265314E+00
             -0.694044359862255E+00
             -0.105464793547754E+00
             -0.389620219686583E+00
              0.781840419105714E+00
             -0.889335897511573E+00
             -0.737011130928388E+00
             -0.457707756166912E+00
             -0.293145183016647E+00
             -0.463949244288352E+00
              0.356229332935315E+00
              0.179902869087575E+00
              0.216683807528892E+00
             -0.491019249608760E+00
             -0.448927891825703E+00
             -0.760597931208042E+00
              0.370252304117861E+00
             -0.447815610665869E+00
              0.428962337213682E+00
             -0.118694167448142E+00
             -0.344967433891976E+00
             -0.604132973815667E+00
             -0.179940212178455E+00
             -0.225578460817081E+00
             -0.176191770319336E+00
              0.490746016076514E+00
              0.102299526104014E+01
             -0.596787537640217E+00
             -0.998095329903010E+00
             -0.226421663860104E+00
              0.136468475519975E+01
             -0.708976718011406E+00
              0.380114399836960E+00
             -0.152832265551663E+00
             -0.731442371387543E+00
              0.354182738833703E+00
              0.357741039624467E+00
             -0.181899174937421E+00
              0.338790269909307E+00
             -0.302249095863193E+00
             -0.813961114712598E+00
              0.131683830716676E+01
              0.569646125375344E+00
              0.230636070942359E+00
              0.155139588606722E+00
              0.309839230642748E+00
              0.102306982405366E+01
             -0.344273036031374E+00
              0.263155648069888E-01
             -0.173905944484322E+01
              0.211924607933125E+00
             -0.825079567961805E+00
              0.153287959693579E+00
              0.275680059557472E+00
             -0.482238715839964E+00
             -0.617455776087002E+00
              0.155953758535379E-01
             -0.398442671022895E+00
              0.590516138390615E+00
             -0.558801340083065E+00
             -0.134551143330520E+00
             -0.493457542367123E+00
             -0.382238558784760E-01
              0.875544352794164E-01
              0.318572866575234E+00
             -0.662335340418529E-02
             -0.756096114168026E-01
              0.872162347836892E+00
              0.116864187288459E+01
              0.633919709132887E+00
              0.770992053332638E+00
             -0.171979418699651E+00
              0.822968482530873E-01
              0.640845517673760E+00
              0.115506305120397E+00
             -0.970437150341237E+00
             -0.582272968729695E+00
             -0.617540303730841E+00
             -0.373930673449743E+00
              0.315558682449382E+00
             -0.155385377256565E+01
             -0.139613156641037E+00
              0.601192411820290E+00
             -0.518555539701222E+00
             -0.342927295784243E+00
              0.760648924477537E+00
              0.637328992779410E+00
             -0.345690843161178E+00
              0.478158765737069E+00
             -0.318089990321165E+00
              0.482577597325204E+00
              0.865118329004759E-01
              0.108464876099948E+00
             -0.102396050814232E+01
             -0.602824790659105E+00
             -0.111815429446299E+00
             -0.624420030312410E-01
             -0.554060186299798E+00
              0.142740898710247E+01
             -0.110152977984025E+00
             -0.318943922508117E+00
              0.482599230825475E+00
             -0.547543284492537E+00
             -0.494618373849973E+00
              0.424680627542529E+00
              0.160110125871036E+00
              0.135289196233927E+00
              0.226998284935100E+00
             -0.130322663124396E+00
              0.948618155415399E-01
              0.735298329958168E+00
             -0.321062414731910E+00
              0.295104388253614E+00
              0.111901506935868E+01
              0.394743100361111E+00
             -0.398149504109817E-01
             -0.270145817403927E+00
              0.197542963603665E+01
             -0.342112684031167E+00
              0.512385098037543E+00
              0.420952546805700E+00
              0.318940992125111E+00
              0.117861464618947E+01
              0.563867250669346E+00
             -0.663030368707386E-01
              0.328036386966074E+00
              0.671779527245357E+00
              0.478242173683860E+00
             -0.794090040632533E+00
              0.120425927669954E+01
             -0.109553472853162E+01
             -0.102937695196294E+00
              0.698775759077896E+00
              0.258674220715017E+00
              0.704158816933109E-01
              0.321543033814437E+00
              0.172662458766823E+00
              0.399493956878589E+00
             -0.785264872877981E+00
              0.414608986867782E-01
             -0.284607462809731E+00
             -0.543238317374798E-01
             -0.473122252108613E-01
             -0.181848645491136E+00
             -0.865010581395258E-01
              0.105258139028190E+01
             -0.546477844986921E-01
             -0.359176396081059E+00
             -0.104775481574528E-01
              0.185772478160293E+00
             -0.827189590497577E+00
             -0.752618728750603E+00
             -0.420290204100669E+00
             -0.794313943430710E+00
             -0.241921653544781E+00
             -0.501125629594535E+00
              0.224929296003185E+00
              0.428715515338476E-01
             -0.171654523576331E+00
             -0.968628518448313E-01
              0.552805083858021E-01
             -0.134229128368659E+00
              0.825608325401990E+00
             -0.113616098811632E+01
             -0.163988310289104E+00
             -0.159030759682270E+00
              0.190050091484392E+00
              0.294840558626949E+00
             -0.661112690375404E+00
             -0.127944792163065E+00
              0.570848244523054E+00
             -0.230086641312748E+00
              0.164280166512377E+00
              0.412177193090554E+00
             -0.210844059852278E-02
              0.145259583323306E+01
             -0.944066562515964E-01
             -0.434655855366587E+00
             -0.197841802369725E-01
             -0.372949424080883E+00
              0.692951329125723E+00
             -0.659678553436088E+00
              0.195466690279714E+00
              0.581325834094661E+00
             -0.160024418862836E+00
              0.148564466463410E+01
              0.161267068352651E+01
             -0.908907458269887E+00
              0.727972531625247E+00
              0.327776912510410E+00
             -0.727028802631613E+00
              0.210395495563042E+00
              0.575985151563067E+00
              0.624017217370850E+00
              0.630277899826748E-01
              0.255469379220893E+00
              0.970306011098718E+00
             -0.292409034653140E+00
              0.102365934706422E+00
              0.827530513244536E+00
             -0.453846509739381E+00
             -0.343839360996038E+00
              0.780110669730921E+00
              0.398314574173768E+00
              0.966319313599188E+00
              0.470509799852715E+00
              0.196691325014309E+00
              0.307708761914486E+00
              0.554987435174125E+00
             -0.699969174467795E+00
              0.114456372438920E+00
              0.400000490368209E+00
              0.134892829591235E+00
              0.319488159401888E+00
             -0.805733091002267E+00
              0.392425463385736E+00
             -0.540704350291885E+00
             -0.393146048379645E+00
              0.265010076209078E+00
             -0.879442217334803E-01
              0.779041727739699E+00
             -0.130909831611666E+00
              0.375045153050899E+00
              0.368681907020054E+00
              0.961699654590125E+00
              0.653351669104622E+00
              0.665362731959480E+00
              0.415673031444008E-02
             -0.164120796085951E+00
             -0.370885470003244E+00
              0.106560430263657E+01
              0.105492355791928E+01
              0.507351446257873E+00
             -0.382831440831607E+00
              0.620858046636276E+00
              0.421314182715866E-01
              0.193360771434981E+00
              0.908581401785982E+00
             -0.457855251271624E-01
             -0.129462807096294E+00
             -0.238440219316578E+00
             -0.816660891213543E+00
              0.122270515385431E+01
              0.681572463561488E+00
             -0.845841666407171E+00
             -0.296268995646749E+00
              0.310655679839821E+00
             -0.131214835575346E+00
              0.847929963078535E+00
              0.191802650601407E+00
              0.103635019913762E+01
              0.408283998417929E+00
             -0.267493938774382E+00
              0.199875682630956E+00
             -0.963620781038990E-01
             -0.293320454595721E+00
              0.216786348617310E+00
              0.182139838085797E+00
              0.115725357395104E+01
              0.961248858086757E+00
              0.739974723119126E+00
              0.834213780567168E+00
              0.917699449655924E-01
             -0.318998542114686E+00
              0.162650047629614E+00
             -0.414988940220231E+00
             -0.745476867050548E+00
             -0.706077071901840E+00
             -0.424451861021756E+00
             -0.137628531006227E+01
             -0.497754942145081E+00
             -0.111072390571692E+01
              0.269851816109464E+00
             -0.569283802338917E+00
              0.683609270767060E+00
             -0.127599850620953E+01
             -0.367486985660469E+00
              0.443649040520741E+00
              0.273215091953852E+00
             -0.117274173145120E+01
              0.643816488527983E+00
             -0.369445382910542E+00
              0.714843498598054E+00
             -0.338647186770163E+00
             -0.998199680497639E+00
              0.239117286631149E+00
             -0.847298705232262E+00
             -0.424428053534864E-02
             -0.323459008175541E-01
              0.518835270753831E+00
              0.160141376967226E+01
             -0.533826797084765E+00
             -0.474982871311244E+00
             -0.105451052290204E+00
             -0.852783729087676E-01
             -0.101144276493003E+01
             -0.714797893013708E+00
              0.622429628945148E+00
             -0.200324285030604E+00
              0.305464542878626E+00
             -0.626970832213197E+00
             -0.212938059592585E+00
             -0.528646387123320E+00
              0.597311437143452E+00
              0.136638654831328E+00
             -0.315135611835269E+00
             -0.250086295572560E+00
              0.188157000788656E+00
             -0.982039684004259E-01
              0.500229693994788E+00
             -0.341306837488287E+00
              0.173434352551840E+00
              0.435883270019336E+00
              0.142032800926653E+00
             -0.329001825383444E+00
              0.196457875799837E+01
              0.783010364142809E+00
              0.141339506647554E+00
              0.651804415741655E-01
             -0.773229288452383E+00
              0.431586821202325E+00
             -0.100776399856453E+01
             -0.456333616727147E+00
             -0.776012840351317E+00
             -0.228968216024580E+00
              0.759496029879573E+00
             -0.745333290116780E+00
              0.369514397126139E+00
             -0.600778224638701E-01
              0.875909746631698E-02
             -0.378095490274251E+00
             -0.515602527806657E+00
             -0.108015238769370E+00
             -0.383012097731354E+00
             -0.272745613646794E+00
             -0.503922068397944E+00
             -0.528248890343363E-01
             -0.397467237057686E+00
             -0.608972305500860E+00
              0.265178772162017E+00
             -0.130745982067581E+00
              0.321975170157746E+00
              0.101080337605255E+00
             -0.970105929351871E+00
             -0.632300658352850E+00
             -0.670278566390303E+00
              0.388868455567762E+00
             -0.102312639231298E+00
             -0.776447064674133E+00
              0.723831185032157E+00
             -0.542206182312107E+00
              0.764365642227541E+00
             -0.404291295823266E+00
             -0.629442651465595E+00
              0.297789387718173E+00
             -0.934168799589972E+00
             -0.382915101270327E+00
              0.730264301901839E+00
              0.263570939173676E+00
             -0.578121577858806E+00
              0.730623109635250E+00
             -0.205951096402802E+00
             -0.480366037444819E+00
             -0.380300367667425E+00
             -0.673900904887827E+00
              0.340368090323654E+00
             -0.109918735840156E+01
             -0.953109197251749E+00
             -0.971866133888764E-01
             -0.364862306623371E+00
             -0.788339707004309E+00
              0.985141875896059E+00
              0.177142027757446E+01
             -0.237117623929724E+00
             -0.514495205131018E-01
             -0.759293315586081E+00
              0.843799185964809E+00
              0.289695313300185E+00
             -0.281846929465489E+00
             -0.448435935833777E+00
              0.176318781828600E+00
             -0.752513257646428E+00
             -0.125845701267004E+00
             -0.108440046692230E+01
              0.434920900209112E+00
              0.130585803105276E+00
             -0.856049505631455E-01
             -0.168668251624502E+00
             -0.565359553559679E+00
             -0.184118023462641E+00
              0.176971031747336E+01
             -0.188721655902419E+00
             -0.633163743773441E+00
             -0.890463857954507E+00
              0.186341074332515E+00
             -0.500233906551510E+00
              0.139767972824260E+00
              0.438287709366520E+00
              0.589115548470840E-01
              0.477495864107867E+00
              0.250393505299050E+00
              0.741951665772239E+00
              0.291489040410559E+00
             -0.473698450832315E+00
              0.732296931273359E+00
              0.433781540985957E+00
              0.163816598386104E+00
              0.453526356226569E+00
             -0.425499872895488E+00
              0.909142761110683E+00
              0.358476401676142E+00
             -0.458136418712591E+00
             -0.712863696965624E-01
             -0.204315970833671E+00
              0.173705643759479E+00
             -0.314635323097993E+00
             -0.182557719689745E+00
             -0.174671877528408E+00
              0.102809310615412E+01
              0.760173026703497E+00
             -0.804202555472404E+00
             -0.120366597617439E+00
             -0.627650609136074E+00
             -0.156822722396112E+00
             -0.266747980605103E+00
              0.156223471750964E+00
             -0.429002797573511E-01
             -0.377183713998522E+00
              0.241286455935010E+00
             -0.128776911203772E+00
             -0.814297131979612E-01
              0.111267499845621E+01
              0.176122918912130E+00
             -0.107228348640695E+01
             -0.469212111736282E+00
              0.123402615475587E+01
              0.294749585578335E+00
             -0.106242076745066E+00
              0.140985139581432E+01
             -0.200634994750462E+00
             -0.864802847618416E-01
             -0.170853501990385E+00
              0.214093741782079E+00
              0.441675884154981E+00
              0.292562558561763E-01
              0.365747563276393E+00
             -0.122699002519581E+00
             -0.535883955530672E+00
             -0.495686652129211E+00
             -0.618087149375758E+00
              0.505310416514929E+00
              0.190292842735630E+00
              0.484165165120435E+00
              0.209789500641460E+00
              0.116205310631691E+01
              0.268203680488301E+00
             -0.971724398705216E+00
             -0.421850217476596E+00
              0.136543507692912E-01
             -0.359620448418915E+00
              0.820941035467406E+00
             -0.212038560956461E+00
              0.216336135452070E+00
              0.721236658840127E+00
             -0.105056280543145E+01
              0.188667215362171E+01
              0.251987694684515E+00
              0.304286420369246E+00
              0.492956907751597E+00
              0.336044841631562E-01
             -0.252511100463755E-01
              0.407876811408570E+00
             -0.452139330067707E+00
              0.112441968793567E+01
              0.982947768461164E+00
             -0.495984571019945E+00
              0.224412999308080E+00
              0.931278765432790E+00
             -0.271275228372133E+00
              0.275309314678616E+00
              0.396004776299795E+00
              0.523534960605383E+00
             -0.940635604320601E+00
             -0.532340465998882E-01
             -0.317483500693722E+00
             -0.860929509147699E-01
             -0.101285943596817E+00
              0.114653031001062E+00
             -0.148840891467607E+00
             -0.394697543017129E+00
              0.235835285111411E+00
              0.633505224213966E-01
              0.679681768228299E+00
             -0.608228075800949E+00
              0.605761551712786E+00
              0.664124330797698E+00
             -0.932202198979715E-01
              0.925105712560820E+00
             -0.856860718418068E+00
             -0.131723089215453E+01
             -0.108190976244041E+00
             -0.888396890949057E-01
             -0.846641953790872E-02
              0.997077656942475E+00
              0.106266502633434E-02
              0.548609174204171E+00
              0.797763311025963E+00
              0.498238050959470E+00
             -0.780119947572953E-01
              0.748453583097168E+00
             -0.216908569285376E+00
             -0.516194745782768E+00
             -0.436312631835138E+00
              0.148300127899705E+00
              0.442796745884988E+00
             -0.237730519506247E-01
              0.419125635430125E+00
              0.176255393420197E-01
              0.689957905652811E+00
              0.198546656108367E+00
              0.969263995973157E-01
              0.290828049691783E-01
              0.367525027533407E+00
              0.524074124694303E+00
              0.174746918147855E+00
             -0.489703276248497E-01
             -0.698187473403332E+00
              0.385566727902691E+00
              0.269121408637904E+00
              0.413542205463104E+00
              0.380938308471603E+00
              0.463967451408982E+00
             -0.125628653668515E+00
              0.456277278889716E+00
             -0.381746660667664E+00
             -0.239973776922167E-01
             -0.668365144996926E+00
             -0.446218055046833E+00
              0.562612793734234E+00
             -0.112209484685789E+01
              0.295462735169280E+00
              0.175079322869165E+00
              0.111046777514182E+01
             -0.131565336856975E+00
              0.429259339668862E+00
             -0.140029172028921E+00
             -0.634940561726468E+00
             -0.822994157173909E+00
             -0.213784230645283E+00
             -0.117378869075462E+01
              0.845432461483249E-01
             -0.261708080819612E+00
              0.421630684778427E+00
              0.320746745889917E+00
             -0.380612072690107E+00
             -0.400871407485278E+00
              0.556533863227644E+00
             -0.735354387589245E+00
             -0.177907234237542E+00
             -0.199915964808298E+00
              0.363041813676695E+00
              0.917240064225116E-01
              0.411169449765605E-01
             -0.182057729659169E+00
              0.678696937686354E+00
             -0.802168254474658E+00
              0.819460788804669E-01
              0.774026126840574E+00
             -0.477357203160788E+00
              0.512084789527361E-01
              0.411623609233382E-01
             -0.824735297737955E+00
             -0.465084859630473E+00
             -0.705399575307020E-02
              0.411427845270104E+00
              0.449922409840484E+00
              0.598272564180924E-01
             -0.164233817325767E+00
              0.212517610251086E+00
             -0.508860930720543E+00
             -0.795804183094564E-01
             -0.681230193634454E+00
             -0.330447988856925E+00
              0.646669345286463E+00
             -0.390860400983095E+00
              0.913227358943853E+00
             -0.310321563810399E+00
              0.418295642552864E+00
              0.328334922580306E+00
             -0.760901047388103E+00
             -0.315383201583000E+00
              0.124829859709260E+00
             -0.544348968179825E+00
             -0.544974270745340E+00
             -0.114809007190461E+01
             -0.710098870297731E+00
             -0.626967825832289E+00
             -0.585523352295021E+00
              0.176335550447249E-02
              0.339154171329002E+00
              0.168702140015332E+00
              0.374003851976191E+00
             -0.756349589742596E+00
              0.169462629868763E+00
              0.384441006986364E+00
             -0.886090288253695E+00
             -0.711083006265684E+00
             -0.499478370969769E+00
             -0.449358026334055E+00
              0.171843632196420E+00
             -0.512533290029520E-01
             -0.532853023435411E+00
              0.338546090039685E+00
             -0.306071088285151E+00
              0.672090321937148E+00
             -0.112496401004367E+01
              0.826569914939397E+00
             -0.167124331194694E+00
             -0.583020303681241E+00
             -0.356928973267046E+00
             -0.261765377122418E-01
              0.644445184772170E+00
             -0.883803908827774E+00
             -0.159306464682607E+00
             -0.206631319810508E+00
              0.507629075401173E+00
              0.101770219608685E+01
             -0.129522944928061E+01
              0.117082681001006E+01
              0.475882073951532E+00
             -0.981054989989742E+00
             -0.390125631080383E+00
              0.102433020584627E+01
              0.719503423806483E+00
             -0.281239952970600E+00
             -0.995056904293907E-01
              0.257797441816969E+00
              0.101988934471181E+01
             -0.780386827633771E+00
              0.155473518453126E+00
             -0.100961439375206E+00
              0.324397032733089E+00
             -0.893684753960554E+00
             -0.196668105495210E-01
             -0.328944611362705E+00
              0.625930065716074E+00
              0.480277086303768E+00
             -0.114826775355494E+01
             -0.597817542839110E+00
             -0.258923627375561E+00
             -0.580600974271551E+00
             -0.156524963057215E+00
             -0.217851205426954E+00
              0.595456898798439E+00
              0.560507107733361E+00
             -0.100110964954618E-01
             -0.566061979984745E+00
             -0.110837660034279E+01
              0.668894021181128E+00
             -0.579017256648529E+00
             -0.497015589998515E+00
              0.992973634961758E-01
             -0.484418585988018E+00
             -0.512629864876879E+00
             -0.415896569220290E+00
             -0.684377992991670E+00
             -0.296489390805531E+00
             -0.640938970834420E+00
              0.699094850882982E+00
              0.744337334403187E+00
             -0.156401258882505E+00
             -0.255587085459378E+00
              0.499275562315660E-01
              0.546430296061702E+00
             -0.108250073978050E+01
             -0.310615738080552E+00
              0.632865495711510E+00
              0.929909985847182E+00
             -0.114050915944809E+00
              0.133602603239604E+00
              0.678888649322881E+00
              0.192665197775406E+00
              0.475199726839817E-01
             -0.491301365908223E+00
              0.165691156732261E+00
             -0.411046896185889E+00
             -0.819317210556445E-01
             -0.278869400146003E+00
             -0.172250941998872E+00
              0.318128221552467E+00
              0.101862376392394E+01
             -0.105735323665842E+00
              0.157973853539750E-01
             -0.117935912115685E+01
             -0.237276636275626E+00
             -0.452040716088316E+00
             -0.222588772217209E-01
             -0.621899362001201E+00
              0.118628689474461E+01
              0.112225586308505E+01
              0.242940290103768E+00
             -0.319358637470698E+00
              0.241703382468919E+00
              0.244443995943231E+00
             -0.590964443497168E+00
             -0.119007932392615E+00
              0.270757221637028E+00
              0.148600179536145E+00
              0.643032295990942E+00
              0.489670989389340E+00
             -0.271993868022749E+00
              0.260278228218758E+00
             -0.125450418416843E+01
             -0.207261847009881E-01
              0.116259426752111E+01
              0.250078055423689E+00
             -0.404511037798549E-01
              0.336128893106062E+00
             -0.293182841670871E+00
              0.110326542768639E+01
             -0.277623745369214E+00
              0.974010633534066E+00
              0.495985641847482E+00
             -0.583932187275982E+00
              0.431639879617074E+00
             -0.351898922796833E+00
             -0.872956926215872E+00
             -0.108237321439340E+00
             -0.690344917983495E+00
             -0.665619135634176E+00
             -0.104817210749721E-01
              0.497320816447674E+00
             -0.194564813588484E+00
             -0.383517361190944E+00
              0.937464744075536E-01
             -0.824417782299140E+00
             -0.335818485376698E-01
             -0.112102123612710E+01
              0.669387329387727E+00
             -0.582930947983176E-01
             -0.625598599796332E+00
             -0.195906781342892E+00
              0.218199844105218E+00
             -0.500802443937212E+00
             -0.560942044755987E+00
              0.117589633835384E+01
             -0.368426293672951E+00
             -0.467420360528585E+00
              0.419388156814534E+00
             -0.301742864180865E+00
              0.743386991652982E+00
             -0.333435110369411E-01
              0.210486448403664E-01
              0.142189487251576E+01
             -0.928333989334473E-01
             -0.503124525695638E+00
             -0.637484465879698E+00
             -0.653745928852230E+00
             -0.486273430113424E+00
              0.378023963785838E+00
              0.418224664617371E+00
              0.371470293050465E+00
              0.949641387234167E+00
              0.731687955904627E-01
              0.306976274166734E+00
             -0.729597444367538E+00
              0.234364513268099E-01
             -0.185326448142141E+00
             -0.349712449299500E+00
             -0.107913944967418E+00
              0.421110786178100E+00
              0.487212697472623E+00
             -0.392847352951240E-01
              0.175438924178419E+00
              0.345795927362730E+00
              0.430834632959538E+00
             -0.297516233873010E+00
             -0.118914500498985E+00
              0.398471601915928E-02
             -0.339181313923973E+00
             -0.314776898775291E-01
             -0.543418465706513E+00
              0.101803901346193E+01
              0.783016256756599E+00
             -0.239241070405984E+00
              0.222964545587676E+00
             -0.793353604628494E-01
             -0.428752278583673E+00
              0.489925912168459E+00
             -0.120772128527875E+00
              0.468589877873381E+00
             -0.600301157038144E+00
              0.220643677164266E+00
             -0.926021382074182E-01
             -0.682977803198321E+00
             -0.300431110429198E+00
              0.298477834481522E+00
             -0.127735766478940E+01
              0.488461272225011E+00
              0.591057151268125E+00
             -0.135642835256086E+00
             -0.950836276762104E-01
             -0.454471291891521E-01
              0.349168008146605E+00
             -0.432453012109979E+00
              0.387666687017555E+00
              0.423143022552646E+00
             -0.113350216714516E+01
             -0.474462145272288E+00
              0.310014201304053E+00
             -0.166713036350746E+00
              0.649933689414323E+00
             -0.799979287283909E+00
             -0.142278175132931E+00
             -0.503643814415624E+00
             -0.168561463299897E+01
              0.101901964325685E+01
             -0.767820702052827E+00
             -0.875867658761477E+00
              0.749744174437492E-01
              0.165977815948628E+01
              0.984866788065220E-01
             -0.442776478666502E+00
             -0.178017759093922E-01
             -0.475311440705457E-01
             -0.109496061619984E+01
             -0.698708550658008E+00
              0.111225540213089E+01
             -0.168048651694312E+00
             -0.450263042705946E+00
              0.616764580690745E+00
             -0.420158346657946E+00
              0.418833787215481E+00
              0.607184683944161E+00
             -0.666161786303797E+00
             -0.371174800297765E+00
             -0.407000193980459E+00
             -0.232920489859989E+00
             -0.251736743815339E+00
             -0.258594728546401E+00
              0.259789963048779E+00
             -0.457837169905883E+00
              0.349497731672374E+00
              0.692964280320298E+00
             -0.642931288717500E-01
             -0.272543137902523E+00
              0.199297631495594E+00
              0.693855217258596E+00
              0.717724732083593E+00
              0.152072737643567E+00
             -0.154005129216989E+00
             -0.155919736762403E+00
             -0.690711369834241E+00
              0.524902253635477E+00
             -0.318798890960766E+00
              0.297288813764798E+00
             -0.159761222289270E+00
              0.325296149048421E+00
              0.222989726731209E+00
             -0.105878658961145E+01
             -0.318875656301336E+00
             -0.100672349708120E+01
             -0.531431471404318E+00
              0.535426754647257E-01
             -0.255737958643463E+00
              0.458336111268191E+00
             -0.361800211036860E+00
              0.454478018064453E-01
              0.880237763623786E-01
              0.890937735964012E+00
              0.458553154959104E+00
             -0.432664928039470E+00
             -0.357417605546377E-01
              0.201976831718363E+00
              0.468476701092802E+00
             -0.476776621308739E-02
              0.736434740011044E+00
              0.355187275722837E+00
              0.116144995100903E+01
              0.448962067237864E-01
              0.783837212032279E+00
             -0.354077516961607E+00
             -0.501602382170509E+00
              0.188465990552027E-01
              0.150469573869017E+00
              0.280801339540329E+00
             -0.287777981273114E+00
             -0.133454242920641E+00
              0.294683981373999E+00
             -0.612241468486540E+00
             -0.779357396661803E+00
              0.102856849540366E+01
             -0.768219493549207E-01
             -0.459424370493222E+00
             -0.765460845100334E-01
             -0.181606775415427E+00
              0.585628158376794E+00
              0.466298413291061E+00
             -0.256998454260038E+00
             -0.521645448915975E-02
             -0.328841689094850E+00
             -0.463242001271776E+00
             -0.302011541378416E+00
             -0.125964317811014E+01
              0.261363520838751E-01
             -0.822974790815426E+00
             -0.762729773029117E+00
             -0.470483149446067E+00
              0.296443891737511E+00
             -0.491195212868264E+00
              0.317930755880597E+00
             -0.844445534542941E+00
              0.139455983397685E-02
             -0.547774489648401E+00
              0.988581180995851E-01
              0.963084280762403E-01
              0.463560300512719E+00
             -0.266232765032729E+00
             -0.245332410128535E+00
              0.418800465175671E+00
              0.760786699873042E+00
              0.415384908547924E+00
              0.147000875624537E+00
             -0.963802971243677E+00
             -0.209880771047823E+00
             -0.349356867262523E+00
             -0.790571058936174E+00
              0.550307958368196E+00
             -0.444051611577376E+00
             -0.994032499490127E-01
             -0.365373829252317E+00
             -0.126633741987923E+01
              0.730019374535193E+00
             -0.240894363636606E+00
              0.491072927152388E+00
             -0.959242323119740E+00
              0.840436444537926E+00
              0.793547149166756E-01
             -0.320740716198075E+00
              0.143711417354612E+00
             -0.248246615799247E+00
             -0.788404022754051E+00
              0.227417520094864E+00
              0.525777612299222E+00
             -0.256888797989534E-01
             -0.440378789989277E+00
             -0.208407023561360E+00
              0.274521737248185E+00
              0.486677163590906E+00
              0.788541423582824E+00
              0.280436102431976E+00
             -0.298114321270763E+00
              0.130870064146921E+01
              0.258667530025835E+00
              0.619868805738971E+00
             -0.209472754375621E+00
              0.384386225625153E+00
              0.318294082698898E+00
             -0.787289854616728E+00
             -0.292030102022946E+00
             -0.518496707075383E+00
             -0.550735868762785E+00
             -0.155991240599673E+00
             -0.971578775438440E-01
             -0.611347777905745E+00
             -0.141458234517476E+01
             -0.340565694353902E+00
              0.171953317044685E+00
              0.748152090470597E-01
              0.213741013605019E+00
              0.505028908231361E+00
              0.127104055896631E+00
              0.399356568216134E+00
             -0.561901756195242E+00
              0.547396434875445E+00
             -0.494058615740270E+00
             -0.842621894307780E+00
              0.270399695976277E+00
             -0.545663187631594E+00
             -0.507282037714066E+00
             -0.204247863604760E+01
             -0.859090885238136E-01
              0.108728327943692E+01
              0.504570613670721E+00
             -0.127217771932557E+00
             -0.141276164483926E+00
              0.587074929322381E+00
              0.814877917063726E+00
             -0.494393199784866E+00
             -0.171378099882121E+00
             -0.474197304242823E+00
             -0.421606332776699E+00
             -0.369748940723876E+00
              0.130050169658187E+00
              0.884684713683874E+00
             -0.835448784379236E+00
             -0.703188702861026E+00
              0.507077638476581E-01
             -0.203130708076056E+00
             -0.226267548889576E+00
             -0.113577413427693E+01
              0.818878772643095E+00
              0.241627076108278E+00
              0.121231304784868E+00
              0.671701452936583E+00
             -0.424471532127244E+00
              0.438373992306179E+00
              0.371063488461570E+00
              0.153322802472755E-01
             -0.113353314232111E+00
              0.969548827419799E-01
             -0.202252438791830E+00
              0.687957435572894E+00
             -0.501810726313548E+00
              0.601863009454803E+00
              0.120930569860350E+00
              0.230470002433410E+00
              0.244177324468755E+00
             -0.103515295349093E+01
              0.136499336527698E+00
             -0.857656847455674E+00
             -0.612861019656483E+00
             -0.609684208727289E+00
             -0.691237328290656E+00
             -0.305752595001785E-02
              0.253471380051802E+00
              0.641368806338609E+00
              0.877215506897489E-01
              0.191667901168076E+00
             -0.884510173750940E+00
             -0.364374653698089E+00
              0.409836926972256E+00
             -0.632539663752273E-01
             -0.533700296431014E-01
             -0.125861507544600E+00
              0.455484318059954E+00
             -0.116019359466837E+01
              0.176891617374586E+00
              0.257307482582145E+00
              0.492496510664196E+00
              0.473409372851978E+00
             -0.724066218747928E+00
              0.216658843697084E+00
              0.912026790139115E-01
              0.976834774005786E-01
              0.853711092011027E-01
             -0.250679288371602E+00
             -0.578281592762835E+00
              0.233799091785552E+00
              0.733135533728450E+00
              0.689693933616375E-02
              0.183627757737939E+00
              0.151374922715942E+00
             -0.406077452142400E+00
             -0.433675156458996E+00
             -0.158692393007155E+01
             -0.484035823273090E+00
             -0.770473881730237E+00
             -0.779304937687595E-01
             -0.884910308145681E+00
              0.965125806284465E+00
             -0.439446234461541E+00
             -0.705915659288542E+00
             -0.200137125340754E+01
              0.861395034815586E+00
              0.192820174132217E+00
              0.152866479091718E+00
             -0.776839390725398E+00
              0.435461195878935E-01
             -0.211931992955548E+00
             -0.395391385382797E+00
              0.105501243218046E+00
              0.414398097570764E+00
              0.606084068270398E-01
             -0.275681774772746E+00
              0.623779719071251E-01
              0.179914734214117E-01
              0.117256995208937E+00
             -0.867085028079088E+00
              0.949730521021511E+00
             -0.531316533015176E+00
             -0.340027588975606E+00
             -0.688814485205131E+00
             -0.142675207897968E+01
              0.549238701827957E-01
             -0.748864143082758E+00
             -0.221798515490245E+00
              0.386014422310265E+00
             -0.353044665072790E+00
             -0.166661445466572E+00
             -0.174132544010790E+00
             -0.240432356904161E+00
              0.498843438179474E-01
              0.663114933927117E+00
             -0.639088151372107E+00
              0.136179512524050E+01
             -0.330599972477601E+00
              0.406994622867117E+00
             -0.259027512597789E+00
              0.147724866389310E+00
             -0.154384419078049E+00
              0.558984641117489E+00
              0.805606136269469E+00
              0.228494450007953E+00
              0.546447370674024E+00
             -0.357942961991091E+00
             -0.105660236690785E+00
             -0.307324629818861E+00
              0.806149558447390E+00
              0.699244262467754E+00
              0.505943424827261E+00
             -0.163955208022898E+00
             -0.319460498192456E+00
              0.303471786872984E+00
             -0.376124256655169E+00
             -0.186988858435504E+00
             -0.704845206226669E-01
             -0.475118654169674E+00
              0.621195747358132E+00
             -0.150432227131573E+00
              0.455612489696024E+00
              0.303321966234011E+00
              0.188683631866795E+00
             -0.433756231718320E+00
              0.305380234977981E+00
             -0.170465240017832E+00
             -0.833926896851827E-01
             -0.764992669607878E-02
             -0.607040590442760E+00
              0.986658193038166E+00
             -0.340733466012236E+00
              0.106764428144173E-01
              0.328666072864598E+00
              0.271326161937488E+00
              0.999558713632629E+00
             -0.290805566052128E+00
              0.958262761387742E+00
              0.850411112882720E+00
             -0.118489600181459E+01
              0.832100049942082E-01
             -0.227515430342281E+00
              0.153557306932915E+00
              0.472479086077344E-01
              0.285591297219876E+00
              0.829668857804001E+00
              0.129541134928229E+01
             -0.926658786368601E+00
              0.969691126422994E+00
             -0.130903982426648E+01
             -0.112169913106436E+01
             -0.198350819300549E+00
              0.167030483812605E-01
              0.102786431552526E+01
              0.397218150872673E+00
             -0.153782385227028E+00
             -0.105036925466049E+01
              0.853118602561909E+00
             -0.514905072388268E+00
              0.307330719534757E-01
             -0.657211530847260E-01
              0.167473446311730E+01
             -0.274417869021786E+00
             -0.134719585534857E+01
              0.390163650588290E+00
             -0.208379427264217E+01
              0.165756748755306E+00
             -0.499668068156238E+00
             -0.221699840258408E+00
             -0.328176974974378E+00
             -0.764234839049130E+00
              0.459001090186615E+00
             -0.468829063657864E+00
             -0.191599315124156E+00
             -0.963760693571956E+00
             -0.475972756722838E-01
             -0.711059488048806E+00
             -0.988349710028748E+00
             -0.132231836965865E+01
              0.941660234165420E-01
             -0.486440311224567E+00
              0.155151870920426E+00
             -0.173083442099403E+00
             -0.106991529486047E+01
             -0.828234171613931E+00
             -0.732950595657066E+00
             -0.761587865975800E+00
              0.661730457604418E+00
              0.642487993315564E-01
             -0.640821120286057E+00
             -0.327889624602451E+00
             -0.364706376349075E+00
              0.542526086202492E+00
             -0.389104526745765E+00
             -0.380755548877760E-01
             -0.420168722733530E+00
             -0.510862538365216E+00
             -0.543406712140510E+00
              0.520098599352770E+00
             -0.152434567047008E+00
             -0.118326033808916E+01
              0.994108955410184E+00
              0.569902198088625E+00
              0.295683108534917E-01
             -0.105725329468771E+01
             -0.956117217682519E+00
              0.555260124044379E-01
              0.358856637785099E-02
             -0.441971755728684E+00
             -0.555771482437266E+00
              0.371312119158093E+00
             -0.563187743086586E-01
              0.345984390529496E+00
              0.607081251792529E+00
              0.450809963214786E+00
              0.299874402026941E+00
              0.270737757410405E+00
             -0.290116216275989E+00
             -0.202208289253858E+00
             -0.234682389975969E+00
             -0.498568123667174E+00
             -0.601783165828431E+00
             -0.765808814646178E+00
             -0.450629463661411E+00
             -0.169271960062224E+00
             -0.934409874208987E+00
             -0.243714331522677E+00
              0.467450157039651E+00
             -0.111596387579713E+01
              0.488530433912611E+00
              0.394719816137122E+00
             -0.936403393949001E+00
             -0.711878708941457E+00
             -0.308697464462503E+00
              0.141369100699822E+00
             -0.530430927735352E+00
              0.975337059088536E+00
              0.861827673366639E+00
             -0.994100505639359E+00
              0.511802816157031E+00
              0.465737250656415E+00
              0.127669423255215E+00
              0.226797922800639E+00
             -0.546319216235155E+00
             -0.202615625029730E+00
              0.910868626003420E-01
              0.269753325454956E+00
              0.520409413299013E+00
             -0.698682330849519E+00
             -0.154455957397081E+00
              0.197259434800417E+00
              0.151955125673051E+00
             -0.459839489048944E+00
              0.235825331902497E+00
             -0.315291483996106E+00
             -0.226353156047824E+00
             -0.223644638714138E-01
             -0.794542259861990E+00
             -0.930496795401892E-02
             -0.821366505013730E-01
             -0.206275468595417E+00
              0.232625978942075E+00
             -0.668636849998000E+00
              0.759437636704803E+00
             -0.265880761707947E+00
             -0.174230906341089E+01
             -0.110408926774552E+01
              0.436279120976470E+00
             -0.556574720537772E+00
             -0.288698440141642E+00
             -0.288324101995343E+00
             -0.250996999971874E+00
             -0.134032333247835E+01
              0.736960306375334E-02
             -0.793374884099172E+00
             -0.435117476024383E+00
              0.245806785288361E+00
              0.103372466486125E+01
              0.701320512541243E-01
              0.467493398303593E-01
              0.779550604368637E+00
             -0.761831819410109E+00
              0.340877572033627E+00
              0.702991570037106E-01
             -0.703536114051056E+00
             -0.420974143941522E+00
              0.240674112539009E+00
              0.434833684523555E-01
              0.226785718071181E+00
              0.180508758227477E+00
             -0.303068690605216E+00
             -0.438236597771340E+00
             -0.634484186102509E+00
              0.641368308547216E+00
             -0.885165593416606E+00
             -0.648835109195781E+00
              0.195501833784292E+00
             -0.107479427489792E+01
              0.309939319962444E+00
              0.771038278540099E+00
             -0.163641166773009E+00
              0.279942896859074E+00
             -0.453169751050832E+00
             -0.292145161644445E+00
              0.139929957276428E+00
              0.461497659485767E+00
             -0.463179107275868E+00
              0.270369690070040E+00
             -0.184853820131752E+00
              0.123252313000028E+00
              0.219599204962454E+00
              0.105218855828381E+00
             -0.170565924081703E+00
             -0.853656523927526E-02
              0.133162683160085E+00
              0.355771810133021E+00
             -0.906513046882053E+00
             -0.420715622325485E-01
              0.675400092275833E+00
             -0.111492072381363E+01
              0.422281519232064E+00
             -0.144783383338204E+01
             -0.154845193685785E+00
             -0.179992433767044E+00
             -0.180647463836117E-01
             -0.169413711183747E+00
             -0.360485469268021E+00
             -0.152310001813809E+00
              0.149887785948970E+00
             -0.330480900134995E+00
              0.132735614234457E+00
              0.117307266294167E+01
             -0.714512387426773E+00
             -0.322441329251385E+00
              0.550894545924970E+00
              0.261608437342690E+00
              0.552085616786589E+00
              0.270736358237492E+00
              0.190379490322460E+00
             -0.176963330134969E+00
             -0.636809631811495E+00
             -0.582714158235009E+00
             -0.480036780991897E+00
              0.923384425170841E-01
             -0.546693645121760E+00
             -0.142401904910644E+00
              0.766080980698929E-01
              0.319379464315264E+00
             -0.807292117254494E-01
              0.764308355126719E+00
             -0.874252420515615E+00
             -0.243849356510317E-02
             -0.103572091017256E+00
              0.411877648732604E+00
             -0.543511480804330E+00
             -0.360141805413113E+00
              0.141326185248943E+00
              0.567761818737928E+00
              0.984543947152704E+00
              0.375810022440937E+00
              0.600872783759020E+00
             -0.307560838209973E+00
              0.807462235375064E+00
              0.808559721428112E+00
             -0.622834933693994E-02
              0.371859437423022E+00
              0.482582626036747E+00
             -0.260567836321386E+00
              0.212199833758258E+00
              0.848880553767685E+00
             -0.256409851720188E+00
             -0.716432751122653E-01
             -0.803099692225204E+00
              0.275572660883187E+00
             -0.208571350114177E+00
              0.284762082600462E+00
              0.349300423613208E-02
             -0.497900865954700E+00
              0.583294275819569E+00
              0.503212857684094E+00
             -0.417313251577234E+00
              0.222148514929535E+00
             -0.772706409085401E+00
             -0.702872976045509E+00
              0.322689655599117E+00
             -0.875139150850276E+00
             -0.459887918856643E+00
             -0.631194827683323E-02
              0.111145039791965E+01
             -0.288918201493020E+00
             -0.140694278102898E+00
             -0.277068669031938E+00
              0.142660014792996E+01
              0.244845929027718E+00
             -0.543942385670419E+00
              0.914754348317080E+00
              0.799819063268072E+00
              0.429563434526819E+00
              0.103805933935722E+01
              0.113672042174228E+01
             -0.298211804734736E-01
             -0.367862708240994E+00
             -0.308510308289005E+00
              0.359230185698112E+00
              0.501515893014783E+00
             -0.987786619762696E-01
             -0.316854670203679E+00
             -0.726079824177403E+00
             -0.247494765189084E+00
             -0.599869547480941E+00
              0.441332821905174E+00
              0.230621292345863E+00
              0.775905877062852E+00
              0.184205705236438E+00
             -0.286275234030999E+00
             -0.114502080575685E+00
              0.509113786956869E+00
              0.124233433614251E+00
              0.808220893317088E+00
              0.704343124387320E+00
             -0.998801821315718E-01
             -0.118746960487253E+00
             -0.131834686995138E+01
              0.624220698749928E+00
              0.128244050129940E-01
              0.745383140800776E+00
             -0.342661506212945E+00
             -0.867580455450989E+00
              0.248890511372393E+00
              0.946626096275383E+00
             -0.329942561912268E+00
              0.845621852771101E+00
             -0.922491411920718E+00
             -0.338229648054019E+00
             -0.111158422638349E+01
              0.194994361273710E+00
              0.404762084856771E-01
              0.129165086561537E+00
             -0.804336252239746E+00
              0.120679982636833E+01
              0.697104718835347E+00
              0.718160946503081E-01
             -0.723084142099952E+00
              0.258317260845762E+00
             -0.215348566469326E+00
             -0.204303888808917E+00
             -0.364116540039741E+00
              0.206385307777031E+00
             -0.236123958246957E+00
             -0.233735695064653E+00
              0.312877867745504E+00
              0.295573909517492E+00
             -0.116164186174664E+01
              0.250118280915132E+00
              0.846669839392032E+00
              0.541243169100543E+00
             -0.163585367771764E+00
             -0.368332268649321E-01
             -0.473798185474477E+00
              0.711922822586356E+00
              0.100880953186350E+00
             -0.281417780614475E-01
             -0.759400866548532E-01
              0.139652410927765E+01
             -0.114266610450843E+00
              0.271739244558121E+00
              0.962959068538511E+00
              0.123100507015797E+01
              0.761785505606420E+00
              0.494940463952120E+00
             -0.827235068248195E+00
             -0.602562959284705E+00
              0.470400259614581E+00
              0.760736510862934E-01
              0.391595650923614E+00
              0.147841931626468E+00
              0.842613020449193E+00
             -0.102270998487308E+01
             -0.627334609089589E+00
             -0.159966387287463E+00
             -0.112199663349011E+01
              0.248605256081181E+00
              0.612387842505214E+00
             -0.234981403070185E-01
             -0.257270730484704E+00
              0.259810627976903E+00
              0.171254195949840E+01
              0.428060288368722E+00
              0.233287922246689E+00
             -0.601225407182842E+00
             -0.725735812181669E+00
             -0.164290933525317E+00
              0.367332937612785E+00
             -0.777268752650162E-01
              0.349632862102475E+00
              0.453917765823165E+00
             -0.782314233525677E+00
              0.354312654128447E+00
              0.388241808612032E+00
              0.719418856962065E+00
             -0.137188099450298E+00
              0.825000797246913E-01
             -0.898291364644552E-01
             -0.563384346786818E+00
             -0.946804492877643E+00
              0.960467692591040E+00
             -0.136939496262179E+00
             -0.663832015290558E+00
              0.117874183375186E+00
             -0.407238863253394E+00
              0.108500578790836E+01
             -0.292821263399700E+00
             -0.488600149638075E+00
              0.487047962485107E+00
             -0.204286639751425E+00
              0.607391875105925E+00
              0.454485758431167E-01
              0.116657779269217E+01
              0.678769618273933E+00
              0.184232374549631E+00
             -0.514370974106628E+00
              0.378025261512843E+00
             -0.690253771984559E+00
             -0.411343057841362E-01
              0.833202230414217E+00
             -0.318706705952312E+00
             -0.550342862009090E+00
             -0.296622303960865E+00
              0.654976742301373E+00
              0.143942473938038E+00
             -0.103628405342685E+01
              0.449673734134020E+00
              0.609720835121967E-01
              0.153104563019634E+00
             -0.619780034598401E+00
              0.147751555368091E+00
              0.438720071860007E+00
              0.575906100721876E+00
              0.839329053759322E+00
              0.469668845476706E+00
              0.103324568348568E+00
             -0.722806566048131E+00
             -0.526198059847419E+00
             -0.804484617286052E+00
             -0.199258113125783E+00
              0.445065298581268E+00
             -0.245674773788807E-02
              0.656524566337549E+00
             -0.409178498531079E+00
              0.212776239750057E+00
             -0.322871400135075E+00
             -0.343500340122189E+00
              0.759370304993932E+00
              0.655510453155435E-01
              0.802048373013426E+00
              0.752076605997658E-01
              0.236649898567544E+00
             -0.198898361184143E+00
              0.766082071222997E+00
             -0.227338130614982E+00
              0.385089289421436E-02
             -0.997625487414296E+00
             -0.829943939603401E-01
              0.885339923513296E+00
              0.813472237050705E+00
              0.320457048972950E+00
             -0.205028325613915E+00
              0.738647558790877E-01
             -0.316577737443759E+00
             -0.284976044089575E+00
              0.115067898330328E+01
              0.111115317517969E+00
             -0.384263443804556E+00
             -0.134654529227095E+01
             -0.516770626847756E+00
             -0.488420181440224E+00
             -0.764975174391598E+00
             -0.770169474465733E+00
             -0.905867797480213E+00
             -0.572987981261749E+00
             -0.327618876466214E+00
             -0.618821310549594E+00
              0.559090233307644E+00
             -0.201379250055955E+00
             -0.104322478472361E+01
              0.532004877769439E+00
             -0.442899822746993E+00
             -0.100985768789119E+01
              0.129729098922385E+01
             -0.332974044379228E+00
              0.176625164711156E+00
              0.474311256806086E+00
              0.207099713819492E+00
              0.338012564007917E+00
              0.163005393064852E-01
              0.198126489397800E-01
             -0.167301415500524E+00
             -0.950837882567944E+00
              0.139447407952263E+00
             -0.151314707137486E+01
              0.950231828752527E+00
             -0.506715155708594E+00
             -0.247655740320830E+00
             -0.271488724588552E+00
              0.310946097143846E+00
             -0.192094159177358E+00
              0.354317511066764E+00
             -0.756293741293058E+00
              0.460413357315577E+00
              0.567585078303494E+00
              0.899600187091618E-01
              0.123111647404257E+00
              0.280485065662078E+00
              0.135790190802421E+00
              0.374243645209397E+00
             -0.501054532034946E-01
             -0.987092273932105E+00
              0.124430006193166E+00
             -0.468904330855437E+00
             -0.432328802307271E-01
              0.735541646699806E+00
             -0.101720558926038E+01
              0.354919478891373E-01
              0.521558595798925E-01
              0.122211225018487E+00
              0.383395397926822E+00
             -0.158753552441235E+00
              0.107291376296397E+01
              0.445081261473046E+00
             -0.176051064538682E+00
             -0.103025519867627E+00
              0.924163032128793E-01
              0.100412760723943E+01
             -0.610848671774027E+00
             -0.128777199307784E+01
              0.377011742562808E+00
             -0.951725016950560E-01
             -0.214053505930692E+00
              0.251778241492792E+00
              0.956838708327842E+00
              0.520538239540169E+00
             -0.217708962246004E+00
             -0.701020457011844E+00
             -0.176610166362834E+00
              0.343842920141276E+00
             -0.243450061656520E+00
             -0.979121254830600E+00
             -0.136300735384063E+00
             -0.126749706333375E+01
             -0.669495963443365E+00
              0.113413243239047E+01
             -0.679475087451582E+00
             -0.929679465294574E+00
             -0.684085871916963E+00
             -0.523258134625392E+00
              0.447638209027017E+00
              0.110145970906852E+01
             -0.140937650508155E+00
              0.334501321394070E+00
             -0.272789710765831E+00
             -0.868817930534854E+00
              0.670654288076121E+00
             -0.629762740559662E+00
              0.303720833526203E+00
              0.344821142848223E+00
             -0.220670413830019E+00
              0.462119741012388E+00
              0.481845312127051E+00
              0.158761015676757E+01
             -0.118523178323179E+00
             -0.751517169765390E+00
             -0.857769999789706E+00
             -0.257613680729011E+00
             -0.579438343223802E+00
              0.116889540864902E+01
             -0.582909288049321E+00
              0.131518169498806E+00
              0.146998434594310E-01
             -0.232939124986019E+00
             -0.112034888822615E+01
             -0.851736850707336E-01
              0.129591150223368E+01
              0.310484067597024E+00
              0.947550355695874E-01
             -0.773784062535052E+00
             -0.684484819383529E+00
             -0.254715451557146E+00
              0.567601267698502E+00
             -0.354738391101688E+00
              0.127617873384945E+01
             -0.629582167027740E+00
              0.256642359893643E+00
             -0.143693124312944E+00
             -0.771888500051432E+00
              0.940451674743628E-01
             -0.734818724127994E+00
             -0.946587409522190E+00
              0.155031553124703E+00
              0.128510839296172E-01
              0.628138893823885E+00
              0.362865991184337E+00
             -0.454609707180490E+00
              0.275197819997097E+00
             -0.115876094948837E+01
             -0.589926706719448E+00
              0.119611529626076E+01
              0.183739689096314E-01
             -0.419745834695213E-01
             -0.299428383353467E+00
             -0.253360800258395E-02
             -0.169323398896394E+00
              0.120609374889731E+01
              0.532222152901167E+00
             -0.931170931046132E-01
              0.258635970589092E-01
             -0.482332050432568E+00
             -0.141702764533107E+00
             -0.781572914644283E+00
              0.678270537608220E+00
              0.879492314559809E-01
              0.840205122295608E-01
              0.253131688133571E+00
             -0.201309164788901E+00
             -0.306211774708083E+00
              0.142528608765488E+00
             -0.145215885441266E+01
             -0.112443956575835E+00
             -0.130482424603533E+00
             -0.720438263624794E-01
              0.599052549799736E+00
              0.837940304806288E+00
              0.234679756703714E+00
             -0.119134183888609E+01
              0.813824086553708E+00
             -0.314861879403799E+00
             -0.471912392250853E+00
             -0.112203247043519E+01
             -0.328730431854073E+00
              0.828470510033859E+00
              0.451141319888611E+00
              0.233577962554095E+00
              0.464855574111384E+00
             -0.718414802887954E+00
             -0.642964168099695E+00
              0.823352128175702E+00
              0.538417577793138E+00
              0.588521013635885E+00
              0.136520329991035E+00
              0.143765152457486E+00
              0.674128495369695E+00
              0.126784482141407E+01
             -0.203922937191861E+00
              0.529070235622465E+00
             -0.418962254786025E+00
             -0.571596940521416E+00
             -0.450826288063965E+00
             -0.444191396974719E+00
             -0.182128244387597E+00
             -0.599113683715207E+00
             -0.234671964683650E+00
             -0.163705598163656E+01
              0.399648836692005E+00
              0.381659062972502E+00
             -0.441153349966932E-01
             -0.465501056373339E+00
             -0.225093966750217E+00
             -0.731205664062045E+00
              0.615919907568587E-01
              0.101222026622244E+01
             -0.237283024413151E+00
             -0.248045209917893E+00
              0.233636450182312E+00
             -0.662466417553895E+00
              0.109776565903323E+01
              0.197809716055668E+00
              0.524766449446750E-01
              0.667647317657876E+00
             -0.986229522396007E-01
              0.762360498587987E+00
              0.270662446828087E+00
             -0.421599329525435E-02
              0.179917172854993E+00
             -0.155367531816689E+00
              0.849445493335143E+00
              0.897321549965975E-01
              0.292129589757398E+00
             -0.116135964893474E+00
              0.137187040834764E+00
             -0.121448147093686E+01
             -0.451380972791672E+00
             -0.647475946879361E+00
              0.639229838601769E+00
             -0.469647399047755E+00
             -0.693804528244748E+00
              0.771374964311438E+00
             -0.182369800733732E+00
              0.522613986014224E+00
             -0.114062256902941E+01
              0.211139960905349E+00
              0.382288186238837E-01
              0.871681441833694E-01
             -0.186204556252830E+00
             -0.800313841794456E-01
              0.653405556412208E+00
              0.418208152030735E-01
             -0.691290077154461E+00
             -0.292558678928427E+00
              0.218030057823166E+00
             -0.148042111367951E+01
             -0.110081378520960E+01
              0.618638078958522E-02
              0.221496691995860E+00
             -0.679416134830952E+00
              0.220411995053209E-01
              0.130626247807469E+01
              0.358653090226015E+00
             -0.687196550222568E+00
              0.952360695430654E-01
             -0.136866323015485E+00
              0.179212091865166E+00
             -0.468081845230855E+00
              0.308086034228083E+00
              0.291523002660580E+00
             -0.116972559054935E+00
              0.145301498393952E+01
             -0.343457567108418E-01
             -0.394038060124919E+00
              0.432852545284343E+00
              0.551957328127719E+00
             -0.406071378783571E+00
             -0.527278778623153E-02
              0.126933191561119E+01
             -0.175466665082604E-01
              0.655673099307387E+00
              0.219119524956975E+00
             -0.777736904039616E-01
             -0.169617279307172E+00
              0.589951662089255E+00
             -0.774708440794968E+00
             -0.253232409811797E-01
             -0.270704293673798E+00
             -0.513996120636098E+00
              0.133416427338950E+00
              0.328546856473371E+00
             -0.474277551881759E-01
             -0.214365854013092E-01
             -0.539407203429104E+00
              0.176463197256720E+00
             -0.143830477086326E-01
             -0.270109707011655E+00
             -0.255438074402462E+00
              0.204334781731809E+00
              0.425700924558026E-02
             -0.505984814842534E+00
             -0.139110250294846E+01
              0.811696463541793E-01
              0.170653989328529E+00
             -0.643997937378119E+00
             -0.333729277302720E+00
              0.106112609329378E+01
              0.183836546211306E+00
              0.591717630113299E+00
              0.155387734844365E+00
              0.527322270993786E+00
              0.262191322046554E-01
             -0.509994038130794E+00
             -0.185069111975056E+00
              0.580359731630367E-01
              0.413888032882426E+00
              0.942434404356154E+00
              0.633762592105479E+00
              0.461588331719192E-01
              0.139727410281563E+00
              0.781185571302713E+00
              0.370381008549809E+00
             -0.877659068467489E+00
             -0.361964462294295E+00
              0.133372849103729E+00
              0.137239959774785E+00
              0.318099597357165E+00
             -0.652979832929062E+00
              0.431142717839695E-01
              0.545301094403642E+00
              0.621334074176863E+00
             -0.536426283193586E+00
              0.622660987874255E-01
             -0.311232136392636E-01
             -0.287409316331049E+00
             -0.296100804132901E+00
             -0.124868548320373E+00
             -0.190466929033440E+00
              0.157809138990844E+00
              0.542805259992410E+00
             -0.419529383668621E+00
              0.104542333935428E+01
              0.424045097304540E+00
              0.348142515171754E+00
              0.492260866285592E+00
              0.297428770848494E+00
              0.465105629706725E+00
              0.716750905672189E+00
             -0.617974286944459E+00
              0.810694907854868E+00
             -0.147377002675295E+01
              0.406105535786520E+00
             -0.134634211735775E+01
              0.102736617376823E+01
              0.102475342821197E+01
             -0.986140657277641E-01
             -0.598524281551172E+00
             -0.558050614173582E+00
             -0.675394780080195E+00
             -0.851700025167351E+00
              0.702813926292847E+00
              0.551110186963653E+00
              0.313179448185317E+00
              0.305321693274146E+00
              0.593552337241599E+00
             -0.534769441204356E+00
             -0.174330151912183E+00
              0.675278702118826E+00
             -0.158600438518416E+00
              0.633600342528823E+00
              0.101085946645830E+01
             -0.462472748219629E-01
             -0.983691714488710E+00
              0.906511232660199E-01
              0.213129481712776E-01
             -0.135959259591808E+00
              0.467072248640585E-01
             -0.828873513932500E+00
             -0.759799386333828E-01
              0.196576254258425E+00
              0.204121258867884E+00
              0.648368710260808E+00
             -0.547517245707175E+00
              0.633540811647518E+00
             -0.484133132224432E+00
              0.366307853335778E+00
              0.576898903830736E+00
 
 BEEF-vdW xc energy contributions
           1 :   -8.83434512962328     
           2 :    7.12054462242478     
           3 :   -4.69143315185433     
           4 :    2.46549508825063     
           5 :  -0.859163629185298     
           6 :  -7.290514288885497E-002
           7 :   0.454362271078482     
           8 :  -0.492328834490888     
           9 :   0.392680269446876     
          10 :  -0.302213065981871     
          11 :   0.273628388315570     
          12 :  -0.285691375339423     
          13 :   0.289956278940421     
          14 :  -0.254681546203789     
          15 :   0.174651162211095     
          16 :  -6.982934477578162E-002
          17 :  -2.837952125160470E-002
          18 :   9.156705277496258E-002
          19 :  -0.109777129795988     
          20 :   9.341886179884007E-002
          21 :  -6.525125403412346E-002
          22 :   4.300134344372708E-002
          23 :  -3.174284603155186E-002
          24 :   2.551167352432060E-002
          25 :  -1.382643629993296E-002
          26 :  -9.445642984735159E-003
          27 :   3.427254837109039E-002
          28 :  -4.591321532660153E-002
          29 :   4.423093879463913E-002
          30 :  -4.149014570408127E-002
          31 :   -1.21771294672314     
          32 :  -0.732533238831707     

     Writing output data file ./pwscf.save/
 
     init_run     :     63.24s CPU     65.73s WALL (       1 calls)
     electrons    :    484.50s CPU    512.55s WALL (       1 calls)
     forces       :     24.77s CPU     26.85s WALL (       1 calls)

     Called by init_run:
     wfcinit      :      1.30s CPU      1.35s WALL (       1 calls)
     potinit      :     54.09s CPU     55.99s WALL (       1 calls)
     hinit0       :      6.39s CPU      6.53s WALL (       1 calls)

     Called by electrons:
     c_bands      :    108.72s CPU    108.77s WALL (      14 calls)
     sum_band     :     31.23s CPU     34.66s WALL (      14 calls)
     v_of_rho     :    280.36s CPU    302.20s WALL (      15 calls)
     newd         :     13.36s CPU     16.87s WALL (      15 calls)
     PAW_pot      :      1.28s CPU      1.28s WALL (      15 calls)
     mix_rho      :     98.73s CPU    100.01s WALL (      14 calls)
     vdW_kernel   :     33.48s CPU     33.49s WALL (       1 calls)

     Called by c_bands:
     init_us_2    :      1.00s CPU      1.02s WALL (      29 calls)
     rcgdiagg     :     93.06s CPU     93.09s WALL (      14 calls)
     wfcrot       :     16.33s CPU     16.36s WALL (      14 calls)

     Called by *cgdiagg:
     h_psi        :     97.47s CPU     97.50s WALL (     363 calls)
     s_psi        :      4.85s CPU      4.86s WALL (     712 calls)

     Called by h_psi:
     h_psi:calbec :      2.62s CPU      2.62s WALL (     363 calls)
     vloc_psi     :     91.88s CPU     91.89s WALL (     363 calls)
     add_vuspsi   :      2.65s CPU      2.65s WALL (     363 calls)
     hs_1psi      :     84.45s CPU     84.46s WALL (     349 calls)
     s_1psi       :      4.94s CPU      4.95s WALL (     349 calls)

     General routines
     calbec       :      5.17s CPU      5.17s WALL (     730 calls)
     fft          :    260.49s CPU    260.51s WALL (    2814 calls)
     ffts         :     43.47s CPU     43.48s WALL (     481 calls)
     fftw         :     82.90s CPU     82.90s WALL (     908 calls)
 
     Parallel routines
 
     PWSCF        :  18m 3.76s CPU  19m31.66s WALL

 
   This run was terminated on:  16:30:30  20Dec2022            

=------------------------------------------------------------------------------=
   JOB DONE.
=------------------------------------------------------------------------------=
