
     Program PWSCF v.6.7MaX starts on 20Dec2022 at 16:39:30 

     This program is part of the open-source Quantum ESPRESSO suite
     for quantum simulation of materials; please cite
         "P. Giannozzi et al., J. Phys.:Condens. Matter 21 395502 (2009);
         "P. Giannozzi et al., J. Phys.:Condens. Matter 29 465901 (2017);
          URL http://www.quantum-espresso.org", 
     in publications or presentations arising from this work. More details at
     http://www.quantum-espresso.org/quote

     Parallel version (MPI), running on     1 processors

     MPI processes distributed on     1 nodes
     Reading input from cch3-gas-ensemble.in
Warning: card &CELL ignored
Warning: card / ignored

     Current dimensions of program PWSCF are:
     Max number of different atomic species (ntypx) = 10
     Max number of k-points (npk) =  40000
     Max angular momentum in pseudopotentials (lmaxx) =  3
     file C.pbe-n-kjpaw_psl.1.0.0.UPF: wavefunction(s)  2S 2P renormalized
     file H.pbe-kjpaw_psl.1.0.0.UPF: wavefunction(s)  1S renormalized

     **************************************************************************
     Initializing libbeef V0.1.2 with the BEEF-vdW functional.
     Citation: Wellendorff et al., PRB 85, 235149 (2012).
     **************************************************************************


     IMPORTANT: XC functional enforced from input :
     Exchange-correlation= BEEF-VDW
                           (   1   4  43  14   2   0   0)
     Any further DFT definition will be discarded
     Please, verify this is what you really want


     gamma-point specific algorithms are used

     Subspace diagonalization in iterative solution of the eigenvalue problem:
     a serial algorithm will be used

 
     G-vector sticks info
     --------------------
     sticks:   dense  smooth     PW     G-vecs:    dense   smooth      PW
     Sum       32003   32003   8005              4343361  4343361  543017
 


     bravais-lattice index     =            0
     lattice parameter (alat)  =      41.1589  a.u.
     unit-cell volume          =   69175.9729 (a.u.)^3
     number of atoms/cell      =            5
     number of atomic types    =            2
     number of electrons       =        11.00
     number of Kohn-Sham states=           10
     kinetic-energy cutoff     =      60.0000  Ry
     charge density cutoff     =     240.0000  Ry
     scf convergence threshold =      1.0E-06
     mixing beta               =       0.7000
     number of iterations used =            8  local-TF  mixing
     Exchange-correlation= BEEF-VDW
                           (   1   4  43  14   2   0   0)

     celldm(1)=  41.158860  celldm(2)=   0.000000  celldm(3)=   0.000000
     celldm(4)=   0.000000  celldm(5)=   0.000000  celldm(6)=   0.000000

     crystal axes: (cart. coord. in units of alat)
               a(1) = (   1.000000   0.000000   0.000000 )  
               a(2) = (   0.000000   0.989093   0.000000 )  
               a(3) = (   0.000000   0.000000   1.003063 )  

     reciprocal axes: (cart. coord. in units 2 pi/alat)
               b(1) = (  1.000000  0.000000  0.000000 )  
               b(2) = (  0.000000  1.011027  0.000000 )  
               b(3) = (  0.000000  0.000000  0.996946 )  


     PseudoPot. # 1 for C  read from file:
     /users/bkreitz1/quantum-espresso/potentials/C.pbe-n-kjpaw_psl.1.0.0.UPF
     MD5 check sum: a169b0ebad56f5ec0d79c4633f80bf22
     Pseudo is Projector augmented-wave + core cor, Zval =  4.0
     Generated using 'atomic' code by A. Dal Corso  v.6.7MaX
     Shape of augmentation charge: PSQ
     Using radial grid of 1073 points,  4 beta functions with: 
                l(1) =   0
                l(2) =   0
                l(3) =   1
                l(4) =   1
     Q(r) pseudized with 0 coefficients 


     PseudoPot. # 2 for H  read from file:
     /users/bkreitz1/quantum-espresso/potentials/H.pbe-kjpaw_psl.1.0.0.UPF
     MD5 check sum: ae98473e6dc62675f0d0baffdab24f65
     Pseudo is Projector augmented-wave, Zval =  1.0
     Generated using 'atomic' code by A. Dal Corso  v.6.7MaX
     Shape of augmentation charge: PSQ
     Using radial grid of  929 points,  2 beta functions with: 
                l(1) =   0
                l(2) =   0
     Q(r) pseudized with 0 coefficients 


     atomic species   valence    mass     pseudopotential
        C              4.00    12.01100     C ( 1.00)
        H              1.00     1.00800     H ( 1.00)

     No symmetry found



   Cartesian axes

     site n.     atom                  positions (alat units)
         1           C   tau(   1) = (   0.4973532   0.5075943   0.4592175  )
         2           C   tau(   2) = (   0.5007286   0.5059794   0.5253013  )
         3           H   tau(   3) = (   0.5414141   0.5297769   0.5439311  )
         4           H   tau(   4) = (   0.4597887   0.5292755   0.5442394  )
         5           H   tau(   5) = (   0.5004010   0.4585931   0.5435597  )

     number of k points=     1  Gaussian smearing, width (Ry)=  0.0050
                       cart. coord. in units 2pi/alat
        k(    1) = (   0.0000000   0.0000000   0.0000000), wk =   2.0000000

     Dense  grid:  2171681 G-vectors     FFT dimensions: ( 216, 216, 216)

     Estimated max dynamical RAM per process >       3.39 GB

     Initial potential from superposition of free atoms

     starting charge   10.99989, renormalised to   11.00000

     negative rho (up, down):  7.201E-03 0.000E+00


     %%%%%%%%%%%%%%%%%%%%%%%%%%%%%%%%%%%%%%%%%%%%%%%%%%%%%%%%%%%%%%%%%%%%%%%%
     %                                                                      %
     % You are using vdW-DF, which was implemented by the Thonhauser group. %
     % Please cite the following two papers that made this development      %
     % possible and the two reviews that describe the various versions:     %
     %                                                                      %
     %   T. Thonhauser et al., PRL 115, 136402 (2015).                      %
     %   T. Thonhauser et al., PRB 76, 125112 (2007).                       %
     %   K. Berland et al., Rep. Prog. Phys. 78, 066501 (2015).             %
     %   D.C. Langreth et al., J. Phys.: Condens. Matter 21, 084203 (2009). %
     %                                                                      %
     %                                                                      %
     % If you are calculating the stress with vdW-DF, please also cite:     %
     %                                                                      %
     %   R. Sabatini et al., J. Phys.: Condens. Matter 24, 424209 (2012).   %
     %                                                                      %
     %%%%%%%%%%%%%%%%%%%%%%%%%%%%%%%%%%%%%%%%%%%%%%%%%%%%%%%%%%%%%%%%%%%%%%%%


     Starting wfcs are   11 randomized atomic wfcs
     Checking if some PAW data can be deallocated... 

     total cpu time spent up to now is       67.7 secs

     Self-consistent Calculation

     iteration #  1     ecut=    60.00 Ry     beta= 0.70
     Davidson diagonalization with overlap
     ethr =  1.00E-02,  avg # of iterations =  5.0

     negative rho (up, down):  6.314E-03 0.000E+00

     total cpu time spent up to now is      106.6 secs

     total energy              =     -41.25234007 Ry
     estimated scf accuracy    <       0.56946358 Ry

     iteration #  2     ecut=    60.00 Ry     beta= 0.70
     Davidson diagonalization with overlap
     ethr =  5.18E-03,  avg # of iterations =  1.0

     negative rho (up, down):  6.690E-03 0.000E+00

     total cpu time spent up to now is      143.1 secs

     total energy              =     -41.23789589 Ry
     estimated scf accuracy    <       0.10991556 Ry

     iteration #  3     ecut=    60.00 Ry     beta= 0.70
     Davidson diagonalization with overlap
     ethr =  9.99E-04,  avg # of iterations =  4.0

     negative rho (up, down):  8.008E-03 0.000E+00

     total cpu time spent up to now is      180.5 secs

     total energy              =     -41.24383908 Ry
     estimated scf accuracy    <       0.02429948 Ry

     iteration #  4     ecut=    60.00 Ry     beta= 0.70
     Davidson diagonalization with overlap
     ethr =  2.21E-04,  avg # of iterations =  4.0

     negative rho (up, down):  1.394E-02 0.000E+00

     total cpu time spent up to now is      217.7 secs

     total energy              =     -41.24141596 Ry
     estimated scf accuracy    <       0.01028537 Ry

     iteration #  5     ecut=    60.00 Ry     beta= 0.70
     Davidson diagonalization with overlap
     ethr =  9.35E-05,  avg # of iterations =  6.0

     negative rho (up, down):  5.664E-02 0.000E+00

     total cpu time spent up to now is      257.7 secs

     total energy              =     -41.24161355 Ry
     estimated scf accuracy    <       0.00414133 Ry

     iteration #  6     ecut=    60.00 Ry     beta= 0.70
     Davidson diagonalization with overlap
     ethr =  3.76E-05,  avg # of iterations =  5.0

     negative rho (up, down):  6.820E-02 0.000E+00

     total cpu time spent up to now is      296.3 secs

     total energy              =     -41.24212041 Ry
     estimated scf accuracy    <       0.00157923 Ry

     iteration #  7     ecut=    60.00 Ry     beta= 0.70
     Davidson diagonalization with overlap
     ethr =  1.44E-05,  avg # of iterations =  5.0

     negative rho (up, down):  6.281E-02 0.000E+00

     total cpu time spent up to now is      333.4 secs

     total energy              =     -41.24193987 Ry
     estimated scf accuracy    <       0.00066595 Ry

     iteration #  8     ecut=    60.00 Ry     beta= 0.70
     Davidson diagonalization with overlap
     ethr =  6.05E-06,  avg # of iterations =  6.0

     negative rho (up, down):  6.162E-02 0.000E+00

     total cpu time spent up to now is      370.4 secs

     total energy              =     -41.24178920 Ry
     estimated scf accuracy    <       0.00038691 Ry

     iteration #  9     ecut=    60.00 Ry     beta= 0.70
     Davidson diagonalization with overlap
     ethr =  3.52E-06,  avg # of iterations =  8.0

     negative rho (up, down):  4.628E-02 0.000E+00

     total cpu time spent up to now is      408.5 secs

     total energy              =     -41.24148992 Ry
     estimated scf accuracy    <       0.00013490 Ry

     iteration # 10     ecut=    60.00 Ry     beta= 0.70
     Davidson diagonalization with overlap
     ethr =  1.23E-06,  avg # of iterations =  5.0

     negative rho (up, down):  2.938E-02 0.000E+00

     total cpu time spent up to now is      445.3 secs

     total energy              =     -41.24135574 Ry
     estimated scf accuracy    <       0.00006213 Ry

     iteration # 11     ecut=    60.00 Ry     beta= 0.70
     Davidson diagonalization with overlap
     ethr =  5.65E-07,  avg # of iterations =  6.0

     negative rho (up, down):  2.049E-02 0.000E+00

     total cpu time spent up to now is      482.2 secs

     total energy              =     -41.24137356 Ry
     estimated scf accuracy    <       0.00002169 Ry

     iteration # 12     ecut=    60.00 Ry     beta= 0.70
     Davidson diagonalization with overlap
     ethr =  1.97E-07,  avg # of iterations =  2.0

     negative rho (up, down):  1.614E-02 0.000E+00

     total cpu time spent up to now is      516.8 secs

     total energy              =     -41.24138967 Ry
     estimated scf accuracy    <       0.00000885 Ry

     iteration # 13     ecut=    60.00 Ry     beta= 0.70
     Davidson diagonalization with overlap
     ethr =  8.04E-08,  avg # of iterations =  1.0

     negative rho (up, down):  1.285E-02 0.000E+00

     total cpu time spent up to now is      550.9 secs

     total energy              =     -41.24139594 Ry
     estimated scf accuracy    <       0.00000324 Ry

     iteration # 14     ecut=    60.00 Ry     beta= 0.70
     Davidson diagonalization with overlap
     ethr =  2.94E-08,  avg # of iterations =  2.0

     negative rho (up, down):  1.258E-02 0.000E+00

     total cpu time spent up to now is      585.7 secs

     total energy              =     -41.24139644 Ry
     estimated scf accuracy    <       0.00000106 Ry

     iteration # 15     ecut=    60.00 Ry     beta= 0.70
     Davidson diagonalization with overlap
     ethr =  9.64E-09,  avg # of iterations =  1.0

     negative rho (up, down):  1.170E-02 0.000E+00

     total cpu time spent up to now is      611.5 secs

     End of self-consistent calculation

          k = 0.0000 0.0000 0.0000 (271509 PWs)   bands (ev):

   -19.8334 -13.8471 -11.3297 -11.3010  -7.1454  -4.0352  -4.0137  -1.0544
    -0.2928  -0.2869

     the Fermi energy is    -4.0577 ev

!    total energy              =     -41.24139735 Ry

     total all-electron energy =      -156.769579 Ry
     estimated scf accuracy    <       0.00000032 Ry
     smearing contrib. (-TS)   =      -0.00438403 Ry
     internal energy E=F+TS    =     -41.23701332 Ry

     The total energy is F=E-TS. E is the sum of the following terms:
     one-electron contribution =     -81.19678999 Ry
     hartree contribution      =      41.87445820 Ry
     xc contribution           =     -11.48575545 Ry
     ewald contribution        =      22.69188720 Ry
     one-center paw contrib.   =     -13.12081328 Ry

     convergence has been achieved in  15 iterations

     negative rho (up, down):  1.170E-02 0.000E+00

     Forces acting on atoms (cartesian axes, Ry/au):

     atom    1 type  1   force =    -0.00074686    0.00235781   -0.00026656
     atom    2 type  1   force =    -0.00116478   -0.00236243    0.00170807
     atom    3 type  2   force =     0.00121334   -0.00013811   -0.00022285
     atom    4 type  2   force =     0.00020233   -0.00039359   -0.00044474
     atom    5 type  2   force =     0.00049597    0.00053632   -0.00077392

     Total force =     0.004372     Total SCF correction =     0.000170

     negative rho (up, down):  1.170E-02 0.000E+00

     negative rho (up, down):  1.170E-02 0.000E+00

     negative rho (up, down):  1.170E-02 0.000E+00

     negative rho (up, down):  1.170E-02 0.000E+00

     negative rho (up, down):  1.170E-02 0.000E+00

     negative rho (up, down):  1.170E-02 0.000E+00

     negative rho (up, down):  1.170E-02 0.000E+00

     negative rho (up, down):  1.170E-02 0.000E+00

     negative rho (up, down):  1.170E-02 0.000E+00

     negative rho (up, down):  1.170E-02 0.000E+00

     negative rho (up, down):  1.170E-02 0.000E+00

     negative rho (up, down):  1.170E-02 0.000E+00

     negative rho (up, down):  1.170E-02 0.000E+00

     negative rho (up, down):  1.170E-02 0.000E+00

     negative rho (up, down):  1.170E-02 0.000E+00

     negative rho (up, down):  1.170E-02 0.000E+00

     negative rho (up, down):  1.170E-02 0.000E+00

     negative rho (up, down):  1.170E-02 0.000E+00

     negative rho (up, down):  1.170E-02 0.000E+00

     negative rho (up, down):  1.170E-02 0.000E+00

     negative rho (up, down):  1.170E-02 0.000E+00

     negative rho (up, down):  1.170E-02 0.000E+00

     negative rho (up, down):  1.170E-02 0.000E+00

     negative rho (up, down):  1.170E-02 0.000E+00

     negative rho (up, down):  1.170E-02 0.000E+00

     negative rho (up, down):  1.170E-02 0.000E+00

     negative rho (up, down):  1.170E-02 0.000E+00

     negative rho (up, down):  1.170E-02 0.000E+00

     negative rho (up, down):  1.170E-02 0.000E+00

     negative rho (up, down):  1.170E-02 0.000E+00

     negative rho (up, down):  1.170E-02 0.000E+00

     negative rho (up, down):  1.170E-02 0.000E+00

     negative rho (up, down):  1.170E-02 0.000E+00

     negative rho (up, down):  1.170E-02 0.000E+00
 BEEFens 2000 ensemble energies
             -0.887053831723750E+00
             -0.242287318251400E-01
             -0.165038712826930E+00
              0.598465262882226E+00
             -0.284589450664352E+00
             -0.194812428037763E+00
             -0.669680885286119E+00
             -0.133413148965495E+01
             -0.421688555743249E+00
             -0.465355573422031E+00
             -0.488274896495515E+00
              0.978987694926138E-01
              0.455908664378037E-01
             -0.947488922564785E-01
              0.518208689764874E-01
              0.635756053075879E+00
             -0.254954909152975E+00
             -0.855017571437162E-01
              0.341556260583252E+00
             -0.148829027622399E+01
              0.763068684053729E+00
             -0.237034866789448E+00
             -0.886008797051659E-01
             -0.111825804422850E+00
              0.698705239648225E-01
             -0.499260513342787E-01
              0.118627119751446E+01
             -0.341984045705346E+00
             -0.919566202308566E-01
             -0.770244503933320E+00
              0.879096882321997E+00
             -0.773645812328949E-02
             -0.564503899184288E+00
              0.212981721849470E+00
             -0.391306326839960E-01
              0.429989564310097E+00
              0.407928223576337E-01
             -0.329268366282447E-01
              0.555747821080722E+00
             -0.131990334268740E+01
              0.744320507070518E+00
              0.160579277731712E+00
             -0.202458646812326E+00
             -0.374137579683202E+00
              0.166827593404559E+00
             -0.259627595283608E+00
              0.707468818005756E+00
              0.467034125657444E+00
             -0.220762892768629E+00
             -0.437140336956622E+00
             -0.420829161023737E+00
             -0.515948957678860E+00
              0.344656888811239E+00
             -0.705553948852868E+00
              0.231470853999856E+00
              0.824906352876921E+00
              0.104948133140417E+01
              0.426017668701879E+00
              0.215609494128047E+00
              0.459903573406061E+00
              0.124438006479027E+01
              0.195991738319551E+00
             -0.740208936400270E+00
             -0.111385513583297E+00
             -0.416493980025823E+00
              0.831773913331731E+00
             -0.944263575855197E+00
             -0.789401573990617E+00
             -0.492456707987219E+00
             -0.310745617254325E+00
             -0.486025746214882E+00
              0.377957932637194E+00
              0.193697175759440E+00
              0.228113308486032E+00
             -0.527863392859178E+00
             -0.478314887496003E+00
             -0.809970897544361E+00
              0.396561167116347E+00
             -0.478865014756869E+00
              0.461138165656430E+00
             -0.127850829844374E+00
             -0.369217718998205E+00
             -0.642099618576555E+00
             -0.191390318901441E+00
             -0.239856711671859E+00
             -0.185001231866231E+00
              0.524903462391667E+00
              0.109272944030867E+01
             -0.629720841953453E+00
             -0.106101461122302E+01
             -0.240837146415627E+00
              0.145290797401753E+01
             -0.760776359123480E+00
              0.406142022115217E+00
             -0.159703337885239E+00
             -0.774689447312784E+00
              0.371346271232732E+00
              0.374931342527761E+00
             -0.197472335254093E+00
              0.362229118239217E+00
             -0.322611364991525E+00
             -0.864851883069930E+00
              0.139980670474847E+01
              0.604618649883973E+00
              0.247880304370002E+00
              0.161571293323619E+00
              0.329185324650288E+00
              0.108449809609055E+01
             -0.364380650805992E+00
              0.290204595390051E-01
             -0.184832965855264E+01
              0.224777905777101E+00
             -0.878431473853048E+00
              0.165534375729886E+00
              0.293209819366122E+00
             -0.513382583559800E+00
             -0.658782803454189E+00
              0.187658944079168E-01
             -0.427270627578785E+00
              0.627795269931578E+00
             -0.595279583766958E+00
             -0.144023462470593E+00
             -0.522274672043864E+00
             -0.379599087803175E-01
              0.906684889877063E-01
              0.340746181932178E+00
             -0.555825966407575E-02
             -0.771758163822600E-01
              0.929448417193113E+00
              0.124595359961979E+01
              0.676453723795863E+00
              0.820128252784715E+00
             -0.181969347177722E+00
              0.871118337017021E-01
              0.681993554709743E+00
              0.119961155965451E+00
             -0.103712072566182E+01
             -0.624164399939752E+00
             -0.658581015588600E+00
             -0.400063126100824E+00
              0.336579623488816E+00
             -0.165042066343359E+01
             -0.153700581110503E+00
              0.637574768884436E+00
             -0.549051122066573E+00
             -0.373489092652823E+00
              0.809423575304367E+00
              0.674114896399235E+00
             -0.371300639549373E+00
              0.508339397618910E+00
             -0.344426346753639E+00
              0.515711285887157E+00
              0.880880385949894E-01
              0.111130740191598E+00
             -0.108969435959900E+01
             -0.639231981151428E+00
             -0.121579392498575E+00
             -0.735403655583344E-01
             -0.587058297806390E+00
              0.152036368505470E+01
             -0.121022613472899E+00
             -0.343420042344649E+00
              0.514772988329366E+00
             -0.581109162092886E+00
             -0.525113473678017E+00
              0.447456349426964E+00
              0.171250778505091E+00
              0.142405354131076E+00
              0.242280993604113E+00
             -0.141069868973990E+00
              0.100690103773300E+00
              0.777366326065013E+00
             -0.342857953947436E+00
              0.307507551855533E+00
              0.119244191984692E+01
              0.424726190982997E+00
             -0.407581536819954E-01
             -0.289630717188430E+00
              0.209758390925955E+01
             -0.364759451419026E+00
              0.547004899401434E+00
              0.446686605572543E+00
              0.338954003976475E+00
              0.125236833365209E+01
              0.601252717745420E+00
             -0.663024154254379E-01
              0.351532915041757E+00
              0.717975967792654E+00
              0.511373675347436E+00
             -0.844557259345072E+00
              0.128173201521452E+01
             -0.116925067308979E+01
             -0.112756943653167E+00
              0.743158999342076E+00
              0.274268421093868E+00
              0.716050942839086E-01
              0.339765691141517E+00
              0.185435580799227E+00
              0.425762195353682E+00
             -0.834456954249591E+00
              0.418968450398909E-01
             -0.303915666679581E+00
             -0.566740464198374E-01
             -0.486723218036751E-01
             -0.198059446947685E+00
             -0.931756109741282E-01
              0.111894139542444E+01
             -0.543049279271586E-01
             -0.383925809301915E+00
             -0.881444273948184E-02
              0.197901868437293E+00
             -0.879634935260520E+00
             -0.800860005178584E+00
             -0.443986677727883E+00
             -0.850366802907916E+00
             -0.258417005374914E+00
             -0.534585236220428E+00
              0.235376249061271E+00
              0.442338422688580E-01
             -0.181512241147019E+00
             -0.102942246621104E+00
              0.593521992754829E-01
             -0.142693058450353E+00
              0.879426146199398E+00
             -0.120943749381437E+01
             -0.175298803687987E+00
             -0.169035418636236E+00
              0.201967917507363E+00
              0.316043748546381E+00
             -0.700711140311229E+00
             -0.137277386617062E+00
              0.608565967691815E+00
             -0.248350532658174E+00
              0.179445052403107E+00
              0.439473875703449E+00
             -0.435216060649957E-02
              0.154493298314442E+01
             -0.100362918103007E+00
             -0.461182554271879E+00
             -0.203427562021572E-01
             -0.400281128489564E+00
              0.732784397964043E+00
             -0.702431664989303E+00
              0.207044030448813E+00
              0.615977848708457E+00
             -0.169628728651509E+00
              0.158655500522628E+01
              0.171778098534111E+01
             -0.968925622908742E+00
              0.777183258683230E+00
              0.346420220183107E+00
             -0.771914172006650E+00
              0.222346463254395E+00
              0.615415838610784E+00
              0.661536316621410E+00
              0.628457158305382E-01
              0.275001846292319E+00
              0.103577369572116E+01
             -0.312767777108388E+00
              0.112837842818786E+00
              0.877700292665477E+00
             -0.478167606841832E+00
             -0.366455064220033E+00
              0.832607950354199E+00
              0.423955845007901E+00
              0.102286961839913E+01
              0.499517952072225E+00
              0.211670604829582E+00
              0.324656909807166E+00
              0.593034420901129E+00
             -0.749310635415206E+00
              0.122253060714331E+00
              0.428031196263124E+00
              0.147551337754531E+00
              0.342050929501279E+00
             -0.860885055156549E+00
              0.418912132195906E+00
             -0.576339341659264E+00
             -0.421613729401971E+00
              0.286223053881723E+00
             -0.931322511721686E-01
              0.833362284033317E+00
             -0.141294792129829E+00
              0.400416653474890E+00
              0.390316774810452E+00
              0.102723206601619E+01
              0.697265460426083E+00
              0.709999865057829E+00
              0.847077730775281E-02
             -0.176154793030225E+00
             -0.397727200499639E+00
              0.113564857707098E+01
              0.112128847982446E+01
              0.540038024590158E+00
             -0.407980541272519E+00
              0.659808273896091E+00
              0.455778529993007E-01
              0.204476905467844E+00
              0.964669739850984E+00
             -0.471100339730510E-01
             -0.138857277799185E+00
             -0.257395863860964E+00
             -0.875029547340723E+00
              0.130851825322364E+01
              0.728784742384533E+00
             -0.903371396991117E+00
             -0.317749883130273E+00
              0.326681084993390E+00
             -0.138080304546607E+00
              0.902570755244115E+00
              0.202619530639474E+00
              0.110054036736669E+01
              0.434808053245039E+00
             -0.283756547802795E+00
              0.213169064167136E+00
             -0.986187823785531E-01
             -0.309470643039307E+00
              0.230257312223072E+00
              0.195528302361682E+00
              0.123592750600062E+01
              0.102259594136583E+01
              0.789639839903604E+00
              0.886614016902072E+00
              0.100917574007737E+00
             -0.343918330592570E+00
              0.175913832347141E+00
             -0.437173422753044E+00
             -0.794114280958757E+00
             -0.750437454563471E+00
             -0.447341562170398E+00
             -0.146287964121017E+01
             -0.531513748912069E+00
             -0.118283398775841E+01
              0.288054465979958E+00
             -0.604614023684816E+00
              0.724377792826350E+00
             -0.135984034720931E+01
             -0.398277848410078E+00
              0.471135524883203E+00
              0.291673012936920E+00
             -0.124964789680664E+01
              0.683761424623175E+00
             -0.394754280878730E+00
              0.755558720597528E+00
             -0.354644626102684E+00
             -0.106282477579192E+01
              0.246254919702706E+00
             -0.896765755456626E+00
             -0.428862066796354E-02
             -0.340226159382835E-01
              0.547779899286756E+00
              0.170505585165235E+01
             -0.569393555312201E+00
             -0.504101489060974E+00
             -0.110618365058476E+00
             -0.904157758849355E-01
             -0.107669349293926E+01
             -0.758993554876915E+00
              0.662679513546485E+00
             -0.214912517387748E+00
              0.326729450040127E+00
             -0.662849390248212E+00
             -0.226424757396215E+00
             -0.559453446856701E+00
              0.638931550835877E+00
              0.145625555216952E+00
             -0.337407198818597E+00
             -0.264670981870201E+00
              0.198412325550221E+00
             -0.100679928298105E+00
              0.526591811002211E+00
             -0.359792387566358E+00
              0.189033886685349E+00
              0.467721272150599E+00
              0.149532144503314E+00
             -0.352325506724044E+00
              0.209072140274237E+01
              0.835017740131434E+00
              0.150821689048869E+00
              0.643442514920913E-01
             -0.823454028440469E+00
              0.456510429852262E+00
             -0.107054835981916E+01
             -0.483688117174119E+00
             -0.829287982295247E+00
             -0.245469271088056E+00
              0.814115934371827E+00
             -0.793501662663466E+00
              0.389471530789247E+00
             -0.683337987262762E-01
              0.803125660975179E-02
             -0.400042000663952E+00
             -0.548650836263469E+00
             -0.116013933254315E+00
             -0.406616237012567E+00
             -0.289663364712613E+00
             -0.535458673958318E+00
             -0.546025581872965E-01
             -0.424581678435703E+00
             -0.647623202775049E+00
              0.279149811003466E+00
             -0.134885303813117E+00
              0.341298445449038E+00
              0.109241037512797E+00
             -0.103126673534189E+01
             -0.673067019099039E+00
             -0.716357944090682E+00
              0.412306178648809E+00
             -0.111848270041286E+00
             -0.821661806890981E+00
              0.774438244122024E+00
             -0.580985898965387E+00
              0.815989337829793E+00
             -0.432731780064646E+00
             -0.665427694516285E+00
              0.312931251248509E+00
             -0.992800128833363E+00
             -0.411751977650355E+00
              0.777928694026063E+00
              0.285345676548744E+00
             -0.620359259487346E+00
              0.778451013024407E+00
             -0.219070923387625E+00
             -0.514956677141104E+00
             -0.402314472010381E+00
             -0.717002832086878E+00
              0.363629929333286E+00
             -0.117589071731598E+01
             -0.101568459733336E+01
             -0.105685483031758E+00
             -0.389989867458177E+00
             -0.837110043506251E+00
              0.104468310331140E+01
              0.188601186380788E+01
             -0.254567520414308E+00
             -0.565956792829700E-01
             -0.809826518039300E+00
              0.900370285181969E+00
              0.306204983133273E+00
             -0.298900408112097E+00
             -0.481259703152365E+00
              0.188271167097923E+00
             -0.801550753543150E+00
             -0.138399343438883E+00
             -0.115055467244402E+01
              0.460408686702031E+00
              0.139055358377891E+00
             -0.877738373207384E-01
             -0.182359940251166E+00
             -0.599524564384730E+00
             -0.199844250070139E+00
              0.188762820301973E+01
             -0.200944330755147E+00
             -0.679216411110391E+00
             -0.946473723446026E+00
              0.201285712305430E+00
             -0.535996089041856E+00
              0.148274584338778E+00
              0.465124658079159E+00
              0.646279865604464E-01
              0.509714349104547E+00
              0.266833070473464E+00
              0.792716627539540E+00
              0.312945691173770E+00
             -0.507724309983242E+00
              0.782983793333587E+00
              0.460645055732907E+00
              0.170244368965970E+00
              0.487098988932683E+00
             -0.455034554579156E+00
              0.962160920074726E+00
              0.378544122257330E+00
             -0.484642922226777E+00
             -0.789070107815826E-01
             -0.222410633339481E+00
              0.186745346617748E+00
             -0.331785918760476E+00
             -0.194424614105451E+00
             -0.182433708227016E+00
              0.109607452033141E+01
              0.807187654451988E+00
             -0.848678682585514E+00
             -0.126345983717019E+00
             -0.663970934045722E+00
             -0.164744578999042E+00
             -0.285561408066840E+00
              0.165430900681643E+00
             -0.422590309193786E-01
             -0.400573469433141E+00
              0.253502233213144E+00
             -0.132679647691163E+00
             -0.829562463724020E-01
              0.118349465486419E+01
              0.190268812376358E+00
             -0.114902629847733E+01
             -0.507789935320983E+00
              0.131740404184836E+01
              0.314805957434606E+00
             -0.111559044734749E+00
              0.150222554205143E+01
             -0.206809965684923E+00
             -0.941037503406474E-01
             -0.184560780043911E+00
              0.226579867983763E+00
              0.473440042122664E+00
              0.301820527212239E-01
              0.384944313706121E+00
             -0.132241381455465E+00
             -0.573679775024968E+00
             -0.534909769582270E+00
             -0.655816101396685E+00
              0.544725977787413E+00
              0.201180840867749E+00
              0.515830019649853E+00
              0.225675112894615E+00
              0.123815528371140E+01
              0.283332890785046E+00
             -0.103775041387676E+01
             -0.450021340701571E+00
              0.139346477715003E-01
             -0.378223440879588E+00
              0.874290094599407E+00
             -0.220147444102283E+00
              0.226592712834696E+00
              0.765273704521598E+00
             -0.111785073754937E+01
              0.200384084991837E+01
              0.269055200916028E+00
              0.324965840744522E+00
              0.526715084086451E+00
              0.336149181765046E-01
             -0.239982337307687E-01
              0.429101358405652E+00
             -0.485273907268570E+00
              0.120136994618838E+01
              0.105016188269287E+01
             -0.529320138019845E+00
              0.239505583222584E+00
              0.989773893155103E+00
             -0.287721239718796E+00
              0.296733820624275E+00
              0.421607609249815E+00
              0.555962682289403E+00
             -0.100363737368341E+01
             -0.608414298834852E-01
             -0.337123867412859E+00
             -0.905308103412459E-01
             -0.105753895731034E+00
              0.126624854444795E+00
             -0.157162853177950E+00
             -0.423103323398411E+00
              0.252631034436338E+00
              0.708332560728446E-01
              0.725251455660371E+00
             -0.648429375792892E+00
              0.649814278770403E+00
              0.706736487049693E+00
             -0.934914210026285E-01
              0.987290896381818E+00
             -0.913110128905289E+00
             -0.140629853242985E+01
             -0.116441809036816E+00
             -0.954796040115440E-01
             -0.868327120099899E-02
              0.106633593676202E+01
              0.261910989964087E-02
              0.584144893182633E+00
              0.845015224382045E+00
              0.529954988462242E+00
             -0.829277789007739E-01
              0.793382122509740E+00
             -0.231718569606087E+00
             -0.547214950854185E+00
             -0.465601716735158E+00
              0.151610483819899E+00
              0.465386335911498E+00
             -0.287240230447106E-01
              0.443163178250630E+00
              0.143714559394081E-01
              0.734561423666713E+00
              0.205978315656734E+00
              0.104493037889725E+00
              0.301989266799882E-01
              0.390186516268173E+00
              0.558723627497131E+00
              0.184343350983535E+00
             -0.496172795638534E-01
             -0.743256084011347E+00
              0.412633796428038E+00
              0.287214084363195E+00
              0.435357588522954E+00
              0.408306543251792E+00
              0.494954141736554E+00
             -0.126350590269701E+00
              0.488714118420363E+00
             -0.409647077747982E+00
             -0.274100013670999E-01
             -0.711212290039112E+00
             -0.473709657313656E+00
              0.596416933894652E+00
             -0.119517329423682E+01
              0.314502353428213E+00
              0.187985830265814E+00
              0.118885972304416E+01
             -0.138740150339828E+00
              0.457736810176043E+00
             -0.153251236259919E+00
             -0.677725615180785E+00
             -0.872866427070660E+00
             -0.229499480703159E+00
             -0.125428973873852E+01
              0.902261671400062E-01
             -0.280869101275098E+00
              0.452391363179391E+00
              0.346049017842507E+00
             -0.406095499518596E+00
             -0.429024079610135E+00
              0.587529702853251E+00
             -0.786423424227401E+00
             -0.195114962971564E+00
             -0.214639088885073E+00
              0.382964245551240E+00
              0.975573918888548E-01
              0.474218683825849E-01
             -0.193552404885165E+00
              0.725263812178090E+00
             -0.856936856266389E+00
              0.916893884907868E-01
              0.828288942922815E+00
             -0.506834909894202E+00
              0.557520301942054E-01
              0.418833178284492E-01
             -0.878174035534307E+00
             -0.494058288221266E+00
             -0.689919130082139E-02
              0.438848372087682E+00
              0.482663728888325E+00
              0.660072502942595E-01
             -0.171791340028513E+00
              0.226303706828605E+00
             -0.537288271779725E+00
             -0.847099564470915E-01
             -0.725109387770212E+00
             -0.355668230241021E+00
              0.689178208964789E+00
             -0.416896990880600E+00
              0.973756119044974E+00
             -0.332418286331710E+00
              0.441883038694383E+00
              0.351392744169331E+00
             -0.810088824565642E+00
             -0.335438220720711E+00
              0.136023028427075E+00
             -0.584417632208228E+00
             -0.573823839164648E+00
             -0.122620676804999E+01
             -0.756027455369170E+00
             -0.668335725210135E+00
             -0.621052485557557E+00
              0.172476261976540E-02
              0.358713550391762E+00
              0.183117615142284E+00
              0.399617448653302E+00
             -0.805618520416148E+00
              0.182555662243529E+00
              0.414106875252006E+00
             -0.940416514107601E+00
             -0.758368056510638E+00
             -0.534434253319865E+00
             -0.480144841321709E+00
              0.184301858263561E+00
             -0.521764994172660E-01
             -0.559722274854845E+00
              0.362023700465667E+00
             -0.322477593478407E+00
              0.715395957737753E+00
             -0.119982743344477E+01
              0.884784380695725E+00
             -0.179655307335776E+00
             -0.619907311548022E+00
             -0.374658281641176E+00
             -0.260829175445001E-01
              0.680882834108458E+00
             -0.942035724406339E+00
             -0.170161004870130E+00
             -0.221256403954067E+00
              0.544228419127351E+00
              0.108745012706649E+01
             -0.138270313734019E+01
              0.124381063657861E+01
              0.502732867290389E+00
             -0.104471396903967E+01
             -0.417119007578667E+00
              0.108863536912203E+01
              0.766088175511972E+00
             -0.301614286501094E+00
             -0.101672771915195E+00
              0.271197756141806E+00
              0.108356286482084E+01
             -0.827410444064345E+00
              0.166375808225840E+00
             -0.106832226730774E+00
              0.343555247678164E+00
             -0.953885373371528E+00
             -0.247000258470225E-01
             -0.349799163801795E+00
              0.665856544429821E+00
              0.508220721381125E+00
             -0.122633004091724E+01
             -0.638755327096873E+00
             -0.274912084426100E+00
             -0.619014160689577E+00
             -0.168325960147078E+00
             -0.226129000809235E+00
              0.631748014650944E+00
              0.589160821351264E+00
             -0.945324602861097E-02
             -0.604467528433661E+00
             -0.118707894043930E+01
              0.709747730913282E+00
             -0.615393692097038E+00
             -0.527574965185813E+00
              0.104747388867308E+00
             -0.519936123675858E+00
             -0.549096809564166E+00
             -0.443596133741887E+00
             -0.729647473231598E+00
             -0.313503516598182E+00
             -0.676975317012360E+00
              0.742247235732135E+00
              0.789944505662920E+00
             -0.164834763859105E+00
             -0.273430856124079E+00
              0.523340221541329E-01
              0.578322451995431E+00
             -0.115090240866289E+01
             -0.329833811268453E+00
              0.671871143265278E+00
              0.998038751637770E+00
             -0.118773152387902E+00
              0.139421900065516E+00
              0.727090882056570E+00
              0.205168343482215E+00
              0.513254036477200E-01
             -0.524325202702331E+00
              0.181783696516320E+00
             -0.438413604001043E+00
             -0.856093031744947E-01
             -0.297875408972617E+00
             -0.184034156836974E+00
              0.342087473727879E+00
              0.108555578604909E+01
             -0.111942241390936E+00
              0.172269452555853E-01
             -0.125700672280215E+01
             -0.251015509004761E+00
             -0.479853928753544E+00
             -0.273420772306205E-01
             -0.661022496129434E+00
              0.125999234429583E+01
              0.119450049201337E+01
              0.258357046261216E+00
             -0.342062458302840E+00
              0.259894140781655E+00
              0.262073334659573E+00
             -0.631630422775620E+00
             -0.132784551528233E+00
              0.289864340527051E+00
              0.155699367560959E+00
              0.687473962427024E+00
              0.523302516020812E+00
             -0.284929051876455E+00
              0.271293714162910E+00
             -0.133668702406607E+01
             -0.195057367396959E-01
              0.123501848502146E+01
              0.264829059200342E+00
             -0.460929377833175E-01
              0.362713824024490E+00
             -0.315653021247889E+00
              0.117362965500772E+01
             -0.295213901495566E+00
              0.104113284821693E+01
              0.527036299324029E+00
             -0.623706138758562E+00
              0.457499295081135E+00
             -0.372063336243992E+00
             -0.927943301081350E+00
             -0.110323343276713E+00
             -0.735241837902224E+00
             -0.710423972946881E+00
             -0.987487784961516E-02
              0.532936518860287E+00
             -0.208278280320027E+00
             -0.405413054759210E+00
              0.990737842497813E-01
             -0.880107012331103E+00
             -0.353130616897125E-01
             -0.119735921443280E+01
              0.707484438519422E+00
             -0.567137090839906E-01
             -0.670995003612031E+00
             -0.204576229518078E+00
              0.231753035695903E+00
             -0.536109090633667E+00
             -0.597456867335975E+00
              0.125671517628484E+01
             -0.393186191184459E+00
             -0.490587834799669E+00
              0.452862677210185E+00
             -0.324033394216480E+00
              0.795006017793634E+00
             -0.390858113369621E-01
              0.163948535519243E-01
              0.151267076010988E+01
             -0.992704949740499E-01
             -0.534654616833866E+00
             -0.675708688460968E+00
             -0.693464197564415E+00
             -0.519231623624198E+00
              0.401301120344439E+00
              0.444668251962470E+00
              0.393348996486575E+00
              0.101047221579893E+01
              0.780764138808339E-01
              0.326277760507084E+00
             -0.774516005875369E+00
              0.270162975597810E-01
             -0.199801606106550E+00
             -0.378044437343707E+00
             -0.115962680935528E+00
              0.450187431742797E+00
              0.520054956862512E+00
             -0.413158061353125E-01
              0.187688691639150E+00
              0.370695627008243E+00
              0.456249729236099E+00
             -0.317285520777701E+00
             -0.124729807346275E+00
              0.271550209809668E-02
             -0.360329099004328E+00
             -0.298576492270790E-01
             -0.575065522023399E+00
              0.108540182346637E+01
              0.840027753110883E+00
             -0.260441886313687E+00
              0.240003613202927E+00
             -0.853142309834378E-01
             -0.457222505655284E+00
              0.521033244507008E+00
             -0.126137955325984E+00
              0.501210060142969E+00
             -0.637993482191367E+00
              0.237364750714534E+00
             -0.102536563922793E+00
             -0.724562731350716E+00
             -0.320200036556981E+00
              0.320685376741714E+00
             -0.135523945013157E+01
              0.520252097187634E+00
              0.632094410632852E+00
             -0.141107626683327E+00
             -0.102197815371229E+00
             -0.515339273815183E-01
              0.369541678891179E+00
             -0.466218188947383E+00
              0.415492146457038E+00
              0.446258943943538E+00
             -0.120659204465776E+01
             -0.504913262231194E+00
              0.329525849571063E+00
             -0.176380535434228E+00
              0.695124580205841E+00
             -0.854098017481757E+00
             -0.154862192345520E+00
             -0.536298510176987E+00
             -0.179446427534974E+01
              0.108197398427957E+01
             -0.816146329022079E+00
             -0.932183797608997E+00
              0.815664451200755E-01
              0.176703653910808E+01
              0.104897292259407E+00
             -0.469352302482693E+00
             -0.215549150735548E-01
             -0.474114428799131E-01
             -0.116350626226397E+01
             -0.739441588906036E+00
              0.118103161478538E+01
             -0.180135499202464E+00
             -0.480969321383375E+00
              0.652087637402079E+00
             -0.443294955261227E+00
              0.447633899687643E+00
              0.650867825271934E+00
             -0.708823005395363E+00
             -0.391478314650458E+00
             -0.429914149319831E+00
             -0.249752441306319E+00
             -0.268947133172058E+00
             -0.277693550999872E+00
              0.275767424780950E+00
             -0.491046990434722E+00
              0.374432759748990E+00
              0.738283091390270E+00
             -0.697744679467800E-01
             -0.291644522315388E+00
              0.215969182787577E+00
              0.742416192356322E+00
              0.759301267244764E+00
              0.164927030640104E+00
             -0.164079559508401E+00
             -0.166305067337031E+00
             -0.737025231880683E+00
              0.563262951561526E+00
             -0.339290875907786E+00
              0.325285474867762E+00
             -0.173034135996005E+00
              0.344307042653641E+00
              0.236918288297624E+00
             -0.112373228402193E+01
             -0.338603790314752E+00
             -0.107609164487468E+01
             -0.563349499007158E+00
              0.547823335976922E-01
             -0.273735200048507E+00
              0.486476564289440E+00
             -0.386367130477691E+00
              0.495185792343273E-01
              0.931939799672534E-01
              0.944876748387087E+00
              0.488721360941710E+00
             -0.459278293040016E+00
             -0.399467870128136E-01
              0.216306183132289E+00
              0.505690039835502E+00
             -0.922608162470162E-02
              0.781949800133454E+00
              0.378060508220727E+00
              0.123350933478364E+01
              0.456956080300244E-01
              0.837936776759431E+00
             -0.374537113972941E+00
             -0.532728655588450E+00
              0.187069459469473E-01
              0.159960838877350E+00
              0.298331919243885E+00
             -0.312328985951448E+00
             -0.142824899035770E+00
              0.318648957419927E+00
             -0.654538464177266E+00
             -0.831783290348357E+00
              0.109292601447665E+01
             -0.812728370634961E-01
             -0.489647459239646E+00
             -0.753550084115300E-01
             -0.191260907387451E+00
              0.624410832154368E+00
              0.495389340026272E+00
             -0.276648543763526E+00
              0.253863577705027E-02
             -0.348693131780020E+00
             -0.490705987341645E+00
             -0.317431129466444E+00
             -0.133704452994403E+01
              0.342383182116861E-01
             -0.871664142870446E+00
             -0.813042516944546E+00
             -0.496580985426101E+00
              0.316374543436851E+00
             -0.523546450018514E+00
              0.341415821804326E+00
             -0.898522622780389E+00
              0.375217162261343E-02
             -0.579844731487293E+00
              0.109310999882919E+00
              0.104454215274193E+00
              0.499686729221128E+00
             -0.287210103566510E+00
             -0.258194651865800E+00
              0.445887458289685E+00
              0.815679332690220E+00
              0.444371723975699E+00
              0.154698036475546E+00
             -0.102686389279642E+01
             -0.225403556739536E+00
             -0.370013988048956E+00
             -0.841063448578414E+00
              0.587877626523262E+00
             -0.473143674185701E+00
             -0.108176848506695E+00
             -0.388836946201662E+00
             -0.134838418386604E+01
              0.774625469974499E+00
             -0.258605041748302E+00
              0.523511732349943E+00
             -0.101744536773907E+01
              0.897051293274922E+00
              0.878716925516283E-01
             -0.341938862068570E+00
              0.151520596614978E+00
             -0.261627645143968E+00
             -0.838426534690260E+00
              0.240588872522466E+00
              0.563569456746017E+00
             -0.282109927373391E-01
             -0.471710391334824E+00
             -0.223706976850148E+00
              0.296450447300697E+00
              0.517556029710336E+00
              0.840023922585245E+00
              0.300607183671756E+00
             -0.317504345973201E+00
              0.139900021769869E+01
              0.274625726681880E+00
              0.665283007963685E+00
             -0.225207060115745E+00
              0.401499340076733E+00
              0.343713078592666E+00
             -0.841664582770065E+00
             -0.306399518836693E+00
             -0.552755278478086E+00
             -0.589606414792794E+00
             -0.171294819518465E+00
             -0.102506435358536E+00
             -0.656222858939213E+00
             -0.151060507640542E+01
             -0.366415559071687E+00
              0.181101537396843E+00
              0.831770641427383E-01
              0.231025739815407E+00
              0.533719038569162E+00
              0.132675587470532E+00
              0.424359597156625E+00
             -0.596851809604066E+00
              0.582390021842153E+00
             -0.524844623498735E+00
             -0.900232409195647E+00
              0.285505521670538E+00
             -0.583695501156737E+00
             -0.542284452786298E+00
             -0.217640122076828E+01
             -0.927949618507484E-01
              0.116000229118770E+01
              0.541841746678824E+00
             -0.138332873444424E+00
             -0.145568052266249E+00
              0.626939765349972E+00
              0.869112829318984E+00
             -0.528364066280183E+00
             -0.176695433269731E+00
             -0.503935173556961E+00
             -0.447348784511702E+00
             -0.397536429445083E+00
              0.133722221729170E+00
              0.934656814423267E+00
             -0.891696481694429E+00
             -0.745575613867870E+00
              0.569961874841853E-01
             -0.213866413547186E+00
             -0.239736539580945E+00
             -0.121008531017470E+01
              0.874776036814874E+00
              0.257404842009443E+00
              0.132669836075086E+00
              0.712346109475807E+00
             -0.452746150535994E+00
              0.464051024056516E+00
              0.393225991411700E+00
              0.110731507490844E-01
             -0.116433018927877E+00
              0.106516010001596E+00
             -0.218528033787289E+00
              0.731419705729336E+00
             -0.533008578094129E+00
              0.643695133479636E+00
              0.129392804613763E+00
              0.245361299446961E+00
              0.260404994004810E+00
             -0.110559063772662E+01
              0.147877467111798E+00
             -0.913116052326502E+00
             -0.654494480394492E+00
             -0.644657873078899E+00
             -0.732505879496368E+00
             -0.433197749910974E-02
              0.268571709782519E+00
              0.682176761712971E+00
              0.918796158773655E-01
              0.206499366589157E+00
             -0.940669985489020E+00
             -0.382803347020490E+00
              0.437980430631626E+00
             -0.685370417697289E-01
             -0.576102695340053E-01
             -0.135250588306691E+00
              0.483878115175766E+00
             -0.123512548506770E+01
              0.184204156502380E+00
              0.274586972175570E+00
              0.528230421110550E+00
              0.503067597234410E+00
             -0.769503984511946E+00
              0.232033872384442E+00
              0.971393650165424E-01
              0.102953739403749E+00
              0.933346928391385E-01
             -0.270670691057711E+00
             -0.614464218263740E+00
              0.244800910849986E+00
              0.784732640895238E+00
              0.556664509939786E-02
              0.194190205652124E+00
              0.167461283104277E+00
             -0.435244360933024E+00
             -0.463842617056108E+00
             -0.168835143889509E+01
             -0.514091135830650E+00
             -0.825680741031135E+00
             -0.824311321451150E-01
             -0.940451925455323E+00
              0.102565067637965E+01
             -0.467047910674172E+00
             -0.753965017414656E+00
             -0.213418144194483E+01
              0.915435419946627E+00
              0.208357138623660E+00
              0.167132152735548E+00
             -0.826375558997061E+00
              0.537572037456879E-01
             -0.226555175982223E+00
             -0.419878995157783E+00
              0.110779629164735E+00
              0.441081441196248E+00
              0.639703827406461E-01
             -0.294141583935234E+00
              0.688648189190086E-01
              0.194546059087517E-01
              0.120412499951784E+00
             -0.923029388992220E+00
              0.101462419066303E+01
             -0.563088933068564E+00
             -0.360407131233032E+00
             -0.733481656248820E+00
             -0.152221657073708E+01
              0.538509402013696E-01
             -0.800689668741711E+00
             -0.233522809316023E+00
              0.411941826193599E+00
             -0.376498200205257E+00
             -0.177850074817778E+00
             -0.183407913701428E+00
             -0.256003163870313E+00
              0.511642643937756E-01
              0.707554120843064E+00
             -0.679465478295496E+00
              0.144553982301971E+01
             -0.357032155106092E+00
              0.430690453667978E+00
             -0.272635619661390E+00
              0.159313428540693E+00
             -0.163021496635655E+00
              0.599354535512891E+00
              0.854539754280085E+00
              0.246461676953191E+00
              0.584667897052917E+00
             -0.380911489329124E+00
             -0.111950897967926E+00
             -0.321602547275678E+00
              0.859800531856207E+00
              0.747513614713270E+00
              0.540281009007041E+00
             -0.174127683061341E+00
             -0.342974513935534E+00
              0.329346066697798E+00
             -0.403712661318316E+00
             -0.203712397363137E+00
             -0.747598000164221E-01
             -0.505386751621889E+00
              0.659358046746205E+00
             -0.162136092576576E+00
              0.485058141304218E+00
              0.321888958188072E+00
              0.195936934180723E+00
             -0.459832839564122E+00
              0.326448292922165E+00
             -0.179157717093715E+00
             -0.920122106478303E-01
             -0.689639050888768E-02
             -0.646141584152070E+00
              0.105183840321708E+01
             -0.358757389423044E+00
              0.626607574665439E-02
              0.349333382649975E+00
              0.288858289029381E+00
              0.106433521247169E+01
             -0.305701106152303E+00
              0.101966799396893E+01
              0.909241405052570E+00
             -0.126470753429857E+01
              0.884942793740950E-01
             -0.242838793094065E+00
              0.168813680824417E+00
              0.594819114063156E-01
              0.305270851833782E+00
              0.879129914414035E+00
              0.138406536086834E+01
             -0.988796084734947E+00
              0.103161722923758E+01
             -0.138844748708504E+01
             -0.119992263168521E+01
             -0.211871645600457E+00
              0.138800999511641E-01
              0.109735683630184E+01
              0.423098269169463E+00
             -0.167658669696491E+00
             -0.111446528868383E+01
              0.907375462611723E+00
             -0.552740675804621E+00
              0.293611122766961E-01
             -0.721619338329175E-01
              0.178018135156833E+01
             -0.292062718036057E+00
             -0.143259164090535E+01
              0.413795470548294E+00
             -0.221792872806119E+01
              0.175786233069549E+00
             -0.531663402961704E+00
             -0.238611312742428E+00
             -0.342652859221486E+00
             -0.814795996460198E+00
              0.488613647874214E+00
             -0.502360185506348E+00
             -0.200542306981196E+00
             -0.102602493040622E+01
             -0.507537442000059E-01
             -0.751950616623767E+00
             -0.105488558909474E+01
             -0.141114269947946E+01
              0.103371544917358E+00
             -0.521697936821048E+00
              0.166519979748401E+00
             -0.190243766777597E+00
             -0.114003697703514E+01
             -0.882466250336611E+00
             -0.780056856001604E+00
             -0.814629669501810E+00
              0.710586305133582E+00
              0.670843499293827E-01
             -0.681019347068861E+00
             -0.345536458473512E+00
             -0.388677863459939E+00
              0.578146871095872E+00
             -0.409468750621805E+00
             -0.407318941057121E-01
             -0.449629605956340E+00
             -0.541258266503596E+00
             -0.578381628849051E+00
              0.552567283215958E+00
             -0.162877738878168E+00
             -0.126247935467331E+01
              0.104997836517716E+01
              0.607853233921258E+00
              0.307484500474864E-01
             -0.112253466764475E+01
             -0.101480963202986E+01
              0.616017034725385E-01
              0.297111709052267E-02
             -0.472985840088498E+00
             -0.588043751134961E+00
              0.396157816156741E+00
             -0.608692210821040E-01
              0.374329377005232E+00
              0.647441663371863E+00
              0.479530426697614E+00
              0.322285988444026E+00
              0.288970773704321E+00
             -0.306861932898350E+00
             -0.216192426245901E+00
             -0.254849615213726E+00
             -0.530852664219585E+00
             -0.638341121618791E+00
             -0.812342725349116E+00
             -0.479512480949487E+00
             -0.175309747998781E+00
             -0.991913433190485E+00
             -0.257644247287596E+00
              0.505361322800101E+00
             -0.119154689843313E+01
              0.520972324720266E+00
              0.426342270234559E+00
             -0.997877440363587E+00
             -0.754465948069044E+00
             -0.329357195973116E+00
              0.149468141095368E+00
             -0.566337702059903E+00
              0.104107261216739E+01
              0.919130440495983E+00
             -0.105916517116316E+01
              0.543715285615006E+00
              0.494525733094299E+00
              0.138297567983824E+00
              0.240702841133201E+00
             -0.584909921499739E+00
             -0.220880287111879E+00
              0.975015308475546E-01
              0.286246091564458E+00
              0.554752257893181E+00
             -0.740768727252003E+00
             -0.169671823242643E+00
              0.210790132305267E+00
              0.168870107396448E+00
             -0.486947733098682E+00
              0.251409419521548E+00
             -0.331912122806439E+00
             -0.244928117278050E+00
             -0.238124876569792E-01
             -0.845668803671088E+00
             -0.124831524360329E-01
             -0.861913268715941E-01
             -0.217688141596422E+00
              0.246285971856345E+00
             -0.711159549556935E+00
              0.812256896781892E+00
             -0.285752491581793E+00
             -0.185390636082506E+01
             -0.117292879926475E+01
              0.466217643325133E+00
             -0.591855183176141E+00
             -0.302042452641347E+00
             -0.303628616867748E+00
             -0.269012381636869E+00
             -0.142997368844248E+01
              0.824530029279202E-02
             -0.847257213271674E+00
             -0.470685801668308E+00
              0.256089228050351E+00
              0.110257235698805E+01
              0.741683931167467E-01
              0.448138038840942E-01
              0.828403710995949E+00
             -0.818771717131561E+00
              0.363650117100945E+00
              0.718085671290487E-01
             -0.746104646200451E+00
             -0.448227379793994E+00
              0.258177208619850E+00
              0.507149588418840E-01
              0.244059350049688E+00
              0.187434578171399E+00
             -0.322097040717208E+00
             -0.466212981614174E+00
             -0.680153084623790E+00
              0.689963385559245E+00
             -0.943044911388506E+00
             -0.694016106749232E+00
              0.198809857382227E+00
             -0.114219744736976E+01
              0.332617803760423E+00
              0.825268404324270E+00
             -0.176055735719681E+00
              0.297326144357341E+00
             -0.484895718241300E+00
             -0.308748199642175E+00
              0.148259015823390E+00
              0.491607670909469E+00
             -0.493247079761026E+00
              0.290869164655639E+00
             -0.197339272889469E+00
              0.135187778916901E+00
              0.238164973492749E+00
              0.112243838885577E+00
             -0.184042644438003E+00
             -0.104108020619700E-01
              0.138793517692703E+00
              0.382325159739163E+00
             -0.964286991045303E+00
             -0.449894694880761E-01
              0.714925508789826E+00
             -0.118414951004028E+01
              0.453198950026817E+00
             -0.154118337255662E+01
             -0.166204571366835E+00
             -0.190486061181262E+00
             -0.252140289372083E-01
             -0.180989567920741E+00
             -0.382554668724410E+00
             -0.158712495731653E+00
              0.152932617869185E+00
             -0.358475799355483E+00
              0.147034329261518E+00
              0.125194050576047E+01
             -0.761581253381226E+00
             -0.341854561592602E+00
              0.586301611201540E+00
              0.276630129605735E+00
              0.592735765420629E+00
              0.289644437562540E+00
              0.202329716666375E+00
             -0.191795969360966E+00
             -0.675618424012222E+00
             -0.618654066845311E+00
             -0.509958286006480E+00
              0.977882518762145E-01
             -0.580132787358792E+00
             -0.153053724951878E+00
              0.766750018253410E-01
              0.339663490616832E+00
             -0.844146571742684E-01
              0.811785442592134E+00
             -0.930704594870067E+00
             -0.198202275330228E-02
             -0.108327975809776E+00
              0.439549098064548E+00
             -0.574153838586084E+00
             -0.380122648384851E+00
              0.152706165209900E+00
              0.603778043069131E+00
              0.104643697148918E+01
              0.397563272220935E+00
              0.642101145844097E+00
             -0.326698414518548E+00
              0.860315824668135E+00
              0.864101040559169E+00
             -0.290638546401212E-02
              0.391391971411831E+00
              0.508907605713197E+00
             -0.277363354306591E+00
              0.223627320753689E+00
              0.902439910906780E+00
             -0.275202918928898E+00
             -0.730369367542529E-01
             -0.854418451516536E+00
              0.290070541520420E+00
             -0.219462147415378E+00
              0.303518302365495E+00
              0.390185781187746E-02
             -0.532658405141968E+00
              0.621883625515830E+00
              0.532231836992232E+00
             -0.441083833817981E+00
              0.236687123085013E+00
             -0.821736830325365E+00
             -0.746555060591686E+00
              0.340382253180315E+00
             -0.931708880532689E+00
             -0.482992392424907E+00
             -0.939114688290665E-02
              0.118420817708079E+01
             -0.308760533208097E+00
             -0.151658739366411E+00
             -0.295578080803518E+00
              0.152423752454859E+01
              0.258034773650001E+00
             -0.582890554843539E+00
              0.976262287015416E+00
              0.854242813595499E+00
              0.453941460855101E+00
              0.110520596883822E+01
              0.120896851947886E+01
             -0.291439378266035E-01
             -0.390213313618428E+00
             -0.329633632262025E+00
              0.382395216556054E+00
              0.534677353870701E+00
             -0.104814881361292E+00
             -0.334027427721350E+00
             -0.773447932038867E+00
             -0.262172221353865E+00
             -0.634388572065825E+00
              0.469377005963983E+00
              0.245179351597308E+00
              0.829717358452396E+00
              0.201864400971035E+00
             -0.306253130294635E+00
             -0.119231743929634E+00
              0.540570364610544E+00
              0.131570282737906E+00
              0.862869865862134E+00
              0.749219984978907E+00
             -0.102388585949341E+00
             -0.126881849866952E+00
             -0.140856246684124E+01
              0.667390577596412E+00
              0.116729334161008E-01
              0.797925023988027E+00
             -0.366792210701810E+00
             -0.919361431312917E+00
              0.262289145027926E+00
              0.100412256163462E+01
             -0.345594305504909E+00
              0.896009821277145E+00
             -0.979556429036244E+00
             -0.361964850968268E+00
             -0.118326343862746E+01
              0.202190386634559E+00
              0.439039518179722E-01
              0.135521464933967E+00
             -0.853284785532049E+00
              0.128817887734228E+01
              0.739415976599148E+00
              0.730814632038950E-01
             -0.772702309900677E+00
              0.277416112915460E+00
             -0.227963875431777E+00
             -0.215798692804295E+00
             -0.387622476871441E+00
              0.222547592854425E+00
             -0.254082785673269E+00
             -0.250035061087087E+00
              0.331899428390631E+00
              0.316542529609597E+00
             -0.124068750363061E+01
              0.265412372978817E+00
              0.901684584736924E+00
              0.578618159301910E+00
             -0.175892901406197E+00
             -0.416293107126789E-01
             -0.506206726985534E+00
              0.758213603036168E+00
              0.103062888522442E+00
             -0.326420294425653E-01
             -0.809805589892889E-01
              0.148658319170581E+01
             -0.120860822069293E+00
              0.286877255001002E+00
              0.102702135159295E+01
              0.130663721976659E+01
              0.810692466845801E+00
              0.523990081383459E+00
             -0.883780258744435E+00
             -0.638845677101186E+00
              0.498431355692357E+00
              0.854265156351297E-01
              0.420648888006801E+00
              0.157240518261677E+00
              0.899551515221231E+00
             -0.109000973093618E+01
             -0.666536876741123E+00
             -0.164400089311441E+00
             -0.119805746416513E+01
              0.269186955976518E+00
              0.653609615759551E+00
             -0.284336247982315E-01
             -0.274174222654984E+00
              0.276068905549889E+00
              0.182310450418566E+01
              0.451413128058378E+00
              0.247158767518543E+00
             -0.636342938546371E+00
             -0.775877203133112E+00
             -0.180211547744862E+00
              0.393813705804594E+00
             -0.817789372680711E-01
              0.378433364223695E+00
              0.487795649461692E+00
             -0.826182963391298E+00
              0.375830510083750E+00
              0.411536774519141E+00
              0.759018998186645E+00
             -0.144954895132639E+00
              0.863164076648033E-01
             -0.932705564129988E-01
             -0.598410129558091E+00
             -0.100546220782274E+01
              0.102022459169268E+01
             -0.143158617027183E+00
             -0.707730374848523E+00
              0.126471214316702E+00
             -0.431686642666468E+00
              0.115450150698245E+01
             -0.316108251846991E+00
             -0.521502717364335E+00
              0.522482020630473E+00
             -0.216997325593667E+00
              0.643962423689540E+00
              0.522927755650118E-01
              0.124036297257400E+01
              0.723652584329685E+00
              0.197828836510500E+00
             -0.547134917431056E+00
              0.400641339359876E+00
             -0.736849279338677E+00
             -0.455400349654391E-01
              0.887876686750875E+00
             -0.342473058180356E+00
             -0.584722051203427E+00
             -0.314811791575104E+00
              0.697260272597723E+00
              0.148279928204982E+00
             -0.109806949432323E+01
              0.475887388282542E+00
              0.684604274400824E-01
              0.164514149944603E+00
             -0.662121839668810E+00
              0.157202006250557E+00
              0.465263197979923E+00
              0.608700575090726E+00
              0.897978836439437E+00
              0.499909492803678E+00
              0.103759039852446E+00
             -0.770720392524290E+00
             -0.563644788267959E+00
             -0.853421134448027E+00
             -0.215105319007335E+00
              0.476933512702733E+00
             -0.237498591186736E-02
              0.702097199019084E+00
             -0.436360973467232E+00
              0.226860821134276E+00
             -0.345732482479484E+00
             -0.368474640933494E+00
              0.806735496689053E+00
              0.678966200023430E-01
              0.857662651983950E+00
              0.770116751878485E-01
              0.253855579934646E+00
             -0.214727008863744E+00
              0.813945759980642E+00
             -0.243369044483644E+00
              0.766858597337375E-02
             -0.106294132074547E+01
             -0.883023727034011E-01
              0.939821478053180E+00
              0.862966592256980E+00
              0.345800367980674E+00
             -0.214594565891143E+00
              0.843296788297163E-01
             -0.337581229573137E+00
             -0.300224780099518E+00
              0.122627269609611E+01
              0.119278849052245E+00
             -0.408373606032613E+00
             -0.142999245772160E+01
             -0.548991890991316E+00
             -0.521215416331396E+00
             -0.811402477382952E+00
             -0.821329300202509E+00
             -0.964231187848491E+00
             -0.613616764262569E+00
             -0.354690831654144E+00
             -0.656746807933481E+00
              0.598252904094230E+00
             -0.214165822977646E+00
             -0.110181743345539E+01
              0.565602739462840E+00
             -0.473597827122809E+00
             -0.107241708704198E+01
              0.137958430177846E+01
             -0.355787580115693E+00
              0.187116578431771E+00
              0.500790310698111E+00
              0.220503208831963E+00
              0.365812177865420E+00
              0.118675240185691E-01
              0.186359054674521E-01
             -0.181623199645581E+00
             -0.101407948188107E+01
              0.146380195354833E+00
             -0.161037045215963E+01
              0.101361189042460E+01
             -0.544626156745154E+00
             -0.262858189456178E+00
             -0.289107366075259E+00
              0.331404325990308E+00
             -0.205393135251286E+00
              0.373692753969903E+00
             -0.804558042936643E+00
              0.488734288742639E+00
              0.605568855733052E+00
              0.948229422694582E-01
              0.134791752346390E+00
              0.296196855719876E+00
              0.146756926771362E+00
              0.398122526806262E+00
             -0.514166947185686E-01
             -0.105401778038516E+01
              0.131585006566378E+00
             -0.498597608020860E+00
             -0.453678662895105E-01
              0.785347982670642E+00
             -0.108157006971295E+01
              0.434174971627588E-01
              0.555567193601378E-01
              0.131806178632895E+00
              0.407752121460587E+00
             -0.171123342995606E+00
              0.114096065219720E+01
              0.466222267313126E+00
             -0.184626884235240E+00
             -0.105690456617220E+00
              0.990679285653746E-01
              0.106469114678270E+01
             -0.648212035309692E+00
             -0.136871660120270E+01
              0.400567517598915E+00
             -0.107051378214871E+00
             -0.227998137679674E+00
              0.267535954176176E+00
              0.101640735570459E+01
              0.556295935507364E+00
             -0.230570151365468E+00
             -0.747901450184466E+00
             -0.190107666034977E+00
              0.366699227272651E+00
             -0.259879328824894E+00
             -0.104342897046972E+01
             -0.148360865474242E+00
             -0.135016716453684E+01
             -0.712006665742385E+00
              0.121229378743542E+01
             -0.723232978578343E+00
             -0.989254497470673E+00
             -0.728680766703984E+00
             -0.557821339655459E+00
              0.477465567877033E+00
              0.116875172595704E+01
             -0.157135515561259E+00
              0.359203398431153E+00
             -0.288848229994636E+00
             -0.926463250996831E+00
              0.717797590207739E+00
             -0.671749349017814E+00
              0.321638099371686E+00
              0.365035171548580E+00
             -0.233653132535233E+00
              0.485155087066117E+00
              0.510436280523862E+00
              0.169068985901112E+01
             -0.123152157874472E+00
             -0.806188489708656E+00
             -0.912104329710480E+00
             -0.272593195513709E+00
             -0.613567177556497E+00
              0.124805385428807E+01
             -0.625797446842687E+00
              0.137119774155197E+00
              0.133994671046800E-01
             -0.251502002487739E+00
             -0.119542525758350E+01
             -0.926745681426784E-01
              0.137754957089824E+01
              0.327114243667243E+00
              0.970675583154730E-01
             -0.824970169646274E+00
             -0.730032869734249E+00
             -0.269893147917457E+00
              0.607943327155132E+00
             -0.373687044171698E+00
              0.135844128387000E+01
             -0.674690989649115E+00
              0.267131190665618E+00
             -0.155309898721708E+00
             -0.828613348606056E+00
              0.100188844282808E+00
             -0.786462435014856E+00
             -0.100612607999033E+01
              0.164675160697800E+00
              0.131345934563740E-01
              0.666915305387302E+00
              0.383302370504867E+00
             -0.489108145597994E+00
              0.291832455830671E+00
             -0.123492825357448E+01
             -0.630025514663101E+00
              0.127476939413134E+01
              0.159184726302500E-01
             -0.434964142247338E-01
             -0.316215454866455E+00
             -0.388014719370133E-02
             -0.179533601786597E+00
              0.128918323515473E+01
              0.569989530927252E+00
             -0.943273997342020E-01
              0.297441844359989E-01
             -0.510770445997517E+00
             -0.149937202361845E+00
             -0.832096394538391E+00
              0.723004818155453E+00
              0.948855533214894E-01
              0.928589080691369E-01
              0.269983937567408E+00
             -0.213623330369719E+00
             -0.325521741372551E+00
              0.154724093078291E+00
             -0.154682051647271E+01
             -0.125768176179569E+00
             -0.142906312604226E+00
             -0.792453528195405E-01
              0.637613379070249E+00
              0.895810732840559E+00
              0.249930848307501E+00
             -0.126730013915282E+01
              0.866721951161847E+00
             -0.331735768832350E+00
             -0.503385839562493E+00
             -0.119324563145798E+01
             -0.345766279169481E+00
              0.885842528774735E+00
              0.483656562332643E+00
              0.246062202843159E+00
              0.492537502624399E+00
             -0.763499131805442E+00
             -0.684689223439456E+00
              0.879134931564023E+00
              0.571436982915851E+00
              0.627796171733406E+00
              0.152342804527754E+00
              0.156127765456294E+00
              0.717829968217195E+00
              0.135127046076395E+01
             -0.218086917829609E+00
              0.567652693658969E+00
             -0.449266351431986E+00
             -0.603856018095907E+00
             -0.484174740226949E+00
             -0.472958683723338E+00
             -0.195773867139492E+00
             -0.639587820904539E+00
             -0.249658644966615E+00
             -0.174562202586327E+01
              0.427823515895501E+00
              0.404161982041819E+00
             -0.473121732658588E-01
             -0.496325226435319E+00
             -0.237801209540868E+00
             -0.782616733556171E+00
              0.663172817401589E-01
              0.107797150211354E+01
             -0.248747567520522E+00
             -0.265160761344609E+00
              0.253650119599892E+00
             -0.707621450161090E+00
              0.116867041982967E+01
              0.209836313575858E+00
              0.565333519209190E-01
              0.708049184480676E+00
             -0.108158505797338E+00
              0.810959166881555E+00
              0.286465119005463E+00
             -0.731049976140197E-02
              0.192174248835120E+00
             -0.167893003528516E+00
              0.902512280390143E+00
              0.987859229501753E-01
              0.311793425092687E+00
             -0.121900398375584E+00
              0.143196993244358E+00
             -0.129099811889661E+01
             -0.478239306610722E+00
             -0.686918972732533E+00
              0.679196369473627E+00
             -0.498003840875321E+00
             -0.738819511049954E+00
              0.824005344523790E+00
             -0.189742931059829E+00
              0.561466474841370E+00
             -0.121074360146857E+01
              0.227490265302386E+00
              0.396275102771870E-01
              0.984457975004585E-01
             -0.198893071784789E+00
             -0.870299319629302E-01
              0.691829957318611E+00
              0.382117291915445E-01
             -0.739498376308891E+00
             -0.311949053961275E+00
              0.229994618411421E+00
             -0.158057844250344E+01
             -0.117487133701185E+01
              0.516564160702027E-02
              0.235659666746549E+00
             -0.726521488034896E+00
              0.237155408989582E-01
              0.138997849522422E+01
              0.380476453033982E+00
             -0.734632348642725E+00
              0.999363447961330E-01
             -0.143983980662943E+00
              0.191820726434367E+00
             -0.502583682248804E+00
              0.329567536092486E+00
              0.312887874918586E+00
             -0.121320901410119E+00
              0.155010459491698E+01
             -0.390185068673390E-01
             -0.415458279931831E+00
              0.455665460400747E+00
              0.585305825733514E+00
             -0.429873585512025E+00
             -0.499820430828490E-02
              0.135148678260722E+01
             -0.128246226256206E-01
              0.698263100391335E+00
              0.231921677765018E+00
             -0.803175683416237E-01
             -0.182676293870938E+00
              0.627465030813361E+00
             -0.821828352722137E+00
             -0.258096913557746E-01
             -0.283512746880235E+00
             -0.547811048589467E+00
              0.147904477261131E+00
              0.352547709158699E+00
             -0.467377643032716E-01
             -0.256710376927147E-01
             -0.575824865131576E+00
              0.185658278983107E+00
             -0.113736468810077E-01
             -0.284344179950050E+00
             -0.270673123180854E+00
              0.211681147283885E+00
              0.157431628036520E-02
             -0.537132628450596E+00
             -0.148085229610030E+01
              0.882268625563261E-01
              0.180118028652964E+00
             -0.684035544664971E+00
             -0.356844810534489E+00
              0.113256902237757E+01
              0.196035483315611E+00
              0.630203153641247E+00
              0.166614920822064E+00
              0.556115984074565E+00
              0.262583922771418E-01
             -0.543588441921097E+00
             -0.198303678288123E+00
              0.658258756461625E-01
              0.438524897298571E+00
              0.100110135376472E+01
              0.673531684940148E+00
              0.481525045131757E-01
              0.155517596711539E+00
              0.832948297301703E+00
              0.395006777431772E+00
             -0.934105965597392E+00
             -0.382833901907240E+00
              0.142595851622477E+00
              0.145380370645556E+00
              0.341556153716980E+00
             -0.692734010947605E+00
              0.488972689402818E-01
              0.581400163494711E+00
              0.663280723362696E+00
             -0.571164703412524E+00
              0.641355038793368E-01
             -0.355435973665532E-01
             -0.298844543582615E+00
             -0.316527786036149E+00
             -0.137729281569346E+00
             -0.204524955502176E+00
              0.166219483921742E+00
              0.578093549222851E+00
             -0.444363594861764E+00
              0.111277770763738E+01
              0.452171196237190E+00
              0.371256385513386E+00
              0.528046870832326E+00
              0.315988947942171E+00
              0.499451764265647E+00
              0.761190160655921E+00
             -0.655260215183222E+00
              0.866691697940182E+00
             -0.157150980299895E+01
              0.428832117397548E+00
             -0.143330612333862E+01
              0.109136980885342E+01
              0.108728634189278E+01
             -0.107598087297117E+00
             -0.633073985368684E+00
             -0.598021943320418E+00
             -0.719954905970425E+00
             -0.909423554394689E+00
              0.751244999418971E+00
              0.587892883820917E+00
              0.330809412236781E+00
              0.323161985345415E+00
              0.632001355985236E+00
             -0.568073470970289E+00
             -0.187135169635376E+00
              0.725738723113800E+00
             -0.172088315749792E+00
              0.678696625172217E+00
              0.108031404189841E+01
             -0.530487945072651E-01
             -0.104756284937228E+01
              0.101702175227425E+00
              0.213788396542820E-01
             -0.144054666179103E+00
              0.451512442231929E-01
             -0.882419618382878E+00
             -0.787385532512244E-01
              0.209869749039693E+00
              0.217796978838175E+00
              0.694473660184325E+00
             -0.582794945937978E+00
              0.670436172388383E+00
             -0.516140802197906E+00
              0.391805664367388E+00
              0.611890275851133E+00
 
 BEEF-vdW xc energy contributions
           1 :   -9.40445564001174     
           2 :    7.56178256618708     
           3 :   -4.95974274313731     
           4 :    2.59376428879513     
           5 :  -0.907700677269318     
           6 :  -4.885978611604003E-002
           7 :   0.419979016193095     
           8 :  -0.443061277853522     
           9 :   0.351367170431905     
          10 :  -0.301618532879262     
          11 :   0.331936262431059     
          12 :  -0.393013787869176     
          13 :   0.416159481023699     
          14 :  -0.369295444207033     
          15 :   0.258808183856688     
          16 :  -0.116591990675539     
          17 :  -1.795903157508150E-002
          18 :   0.111255452710260     
          19 :  -0.149402356352939     
          20 :   0.139027120326524     
          21 :  -0.101916170017196     
          22 :   6.121362682436349E-002
          23 :  -3.091679680295023E-002
          24 :   9.648455266464850E-003
          25 :   1.207542834564457E-002
          26 :  -4.248677444966553E-002
          27 :   7.964823092387974E-002
          28 :  -0.112817165039267     
          29 :   0.132798416123798     
          30 :  -0.139138484301363     
          31 :   -1.31537595128361     
          32 :  -0.792380433914394     

     Writing output data file ./pwscf.save/
 
     init_run     :     65.00s CPU     67.65s WALL (       1 calls)
     electrons    :    499.43s CPU    543.79s WALL (       1 calls)
     forces       :     26.42s CPU     28.73s WALL (       1 calls)

     Called by init_run:
     wfcinit      :      1.64s CPU      1.70s WALL (       1 calls)
     potinit      :     55.28s CPU     57.33s WALL (       1 calls)
     hinit0       :      6.59s CPU      6.71s WALL (       1 calls)

     Called by electrons:
     c_bands      :     64.00s CPU     64.84s WALL (      15 calls)
     sum_band     :     35.33s CPU     40.80s WALL (      15 calls)
     v_of_rho     :    319.62s CPU    349.46s WALL (      16 calls)
     newd         :     13.88s CPU     19.47s WALL (      16 calls)
     PAW_pot      :      1.36s CPU      1.37s WALL (      16 calls)
     mix_rho      :    115.22s CPU    119.97s WALL (      15 calls)
     vdW_kernel   :     33.47s CPU     33.47s WALL (       1 calls)

     Called by c_bands:
     init_us_2    :      1.18s CPU      1.24s WALL (      31 calls)
     regterg      :     61.87s CPU     62.66s WALL (      15 calls)

     Called by *egterg:
     rdiaghg      :      0.01s CPU      0.02s WALL (      76 calls)
     h_psi        :     57.79s CPU     57.81s WALL (      77 calls)
     s_psi        :      0.79s CPU      0.79s WALL (      77 calls)
     g_psi        :      0.19s CPU      0.19s WALL (      61 calls)

     Called by h_psi:
     h_psi:calbec :      0.87s CPU      0.87s WALL (      77 calls)
     vloc_psi     :     55.79s CPU     55.79s WALL (      77 calls)
     add_vuspsi   :      0.81s CPU      0.81s WALL (      77 calls)

     General routines
     calbec       :      1.12s CPU      1.13s WALL (      96 calls)
     fft          :    282.53s CPU    282.56s WALL (    2873 calls)
     ffts         :     50.72s CPU     50.73s WALL (     513 calls)
     fftw         :     53.37s CPU     53.38s WALL (     533 calls)
 
     Parallel routines
 
     PWSCF        :  18m57.58s CPU  20m48.08s WALL

 
   This run was terminated on:  17: 0:18  20Dec2022            

=------------------------------------------------------------------------------=
   JOB DONE.
=------------------------------------------------------------------------------=
