
     Program PWSCF v.6.7MaX starts on  3Jan2023 at 22:53:24 

     This program is part of the open-source Quantum ESPRESSO suite
     for quantum simulation of materials; please cite
         "P. Giannozzi et al., J. Phys.:Condens. Matter 21 395502 (2009);
         "P. Giannozzi et al., J. Phys.:Condens. Matter 29 465901 (2017);
          URL http://www.quantum-espresso.org", 
     in publications or presentations arising from this work. More details at
     http://www.quantum-espresso.org/quote

     Parallel version (MPI), running on     1 processors

     MPI processes distributed on     1 nodes
     Reading input from cchch3-gas-ensemble.in
Warning: card &CELL ignored
Warning: card / ignored

     Current dimensions of program PWSCF are:
     Max number of different atomic species (ntypx) = 10
     Max number of k-points (npk) =  40000
     Max angular momentum in pseudopotentials (lmaxx) =  3
     file C.pbe-n-kjpaw_psl.1.0.0.UPF: wavefunction(s)  2S 2P renormalized
     file H.pbe-kjpaw_psl.1.0.0.UPF: wavefunction(s)  1S renormalized

     **************************************************************************
     Initializing libbeef V0.1.2 with the BEEF-vdW functional.
     Citation: Wellendorff et al., PRB 85, 235149 (2012).
     **************************************************************************


     IMPORTANT: XC functional enforced from input :
     Exchange-correlation= BEEF-VDW
                           (   1   4  43  14   2   0   0)
     Any further DFT definition will be discarded
     Please, verify this is what you really want


     gamma-point specific algorithms are used

     Subspace diagonalization in iterative solution of the eigenvalue problem:
     a serial algorithm will be used

 
     G-vector sticks info
     --------------------
     sticks:   dense  smooth     PW     G-vecs:    dense   smooth      PW
     Sum       35085   35085   8757              5007371  5007371  625983
 


     bravais-lattice index     =            0
     lattice parameter (alat)  =      43.7121  a.u.
     unit-cell volume          =   79757.3836 (a.u.)^3
     number of atoms/cell      =            7
     number of atomic types    =            2
     number of electrons       =        16.00
     number of Kohn-Sham states=           12
     kinetic-energy cutoff     =      60.0000  Ry
     charge density cutoff     =     240.0000  Ry
     scf convergence threshold =      1.0E-06
     mixing beta               =       0.7000
     number of iterations used =            8  local-TF  mixing
     Exchange-correlation= BEEF-VDW
                           (   1   4  43  14   2   0   0)

     celldm(1)=  43.712137  celldm(2)=   0.000000  celldm(3)=   0.000000
     celldm(4)=   0.000000  celldm(5)=   0.000000  celldm(6)=   0.000000

     crystal axes: (cart. coord. in units of alat)
               a(1) = (   1.000000   0.000000   0.000000 )  
               a(2) = (   0.000000   0.961384   0.000000 )  
               a(3) = (   0.000000   0.000000   0.993271 )  

     reciprocal axes: (cart. coord. in units 2 pi/alat)
               b(1) = (  1.000000  0.000000  0.000000 )  
               b(2) = (  0.000000  1.040167  0.000000 )  
               b(3) = (  0.000000  0.000000  1.006775 )  


     PseudoPot. # 1 for C  read from file:
     /users/bkreitz1/quantum-espresso/potentials/C.pbe-n-kjpaw_psl.1.0.0.UPF
     MD5 check sum: a169b0ebad56f5ec0d79c4633f80bf22
     Pseudo is Projector augmented-wave + core cor, Zval =  4.0
     Generated using 'atomic' code by A. Dal Corso  v.6.7MaX
     Shape of augmentation charge: PSQ
     Using radial grid of 1073 points,  4 beta functions with: 
                l(1) =   0
                l(2) =   0
                l(3) =   1
                l(4) =   1
     Q(r) pseudized with 0 coefficients 


     PseudoPot. # 2 for H  read from file:
     /users/bkreitz1/quantum-espresso/potentials/H.pbe-kjpaw_psl.1.0.0.UPF
     MD5 check sum: ae98473e6dc62675f0d0baffdab24f65
     Pseudo is Projector augmented-wave, Zval =  1.0
     Generated using 'atomic' code by A. Dal Corso  v.6.7MaX
     Shape of augmentation charge: PSQ
     Using radial grid of  929 points,  2 beta functions with: 
                l(1) =   0
                l(2) =   0
     Q(r) pseudized with 0 coefficients 


     atomic species   valence    mass     pseudopotential
        C              4.00    12.01100     C ( 1.00)
        H              1.00     1.00800     H ( 1.00)

     No symmetry found



   Cartesian axes

     site n.     atom                  positions (alat units)
         1           C   tau(   1) = (   0.5226624   0.4330748   0.4317805  )
         2           C   tau(   2) = (   0.5227707   0.4618487   0.4800478  )
         3           C   tau(   3) = (   0.4734467   0.4819666   0.5177071  )
         4           H   tau(   4) = (   0.5675728   0.4713479   0.4925617  )
         5           H   tau(   5) = (   0.4323787   0.4680945   0.4994393  )
         6           H   tau(   6) = (   0.4775723   0.4639582   0.5610984  )
         7           H   tau(   7) = (   0.4735758   0.5290189   0.5214260  )

     number of k points=     1  Gaussian smearing, width (Ry)=  0.0050
                       cart. coord. in units 2pi/alat
        k(    1) = (   0.0000000   0.0000000   0.0000000), wk =   2.0000000

     Dense  grid:  2503686 G-vectors     FFT dimensions: ( 216, 216, 216)

     Estimated max dynamical RAM per process >       3.97 GB

     Initial potential from superposition of free atoms

     starting charge   15.99984, renormalised to   16.00000

     negative rho (up, down):  9.353E-03 0.000E+00


     %%%%%%%%%%%%%%%%%%%%%%%%%%%%%%%%%%%%%%%%%%%%%%%%%%%%%%%%%%%%%%%%%%%%%%%%
     %                                                                      %
     % You are using vdW-DF, which was implemented by the Thonhauser group. %
     % Please cite the following two papers that made this development      %
     % possible and the two reviews that describe the various versions:     %
     %                                                                      %
     %   T. Thonhauser et al., PRL 115, 136402 (2015).                      %
     %   T. Thonhauser et al., PRB 76, 125112 (2007).                       %
     %   K. Berland et al., Rep. Prog. Phys. 78, 066501 (2015).             %
     %   D.C. Langreth et al., J. Phys.: Condens. Matter 21, 084203 (2009). %
     %                                                                      %
     %                                                                      %
     % If you are calculating the stress with vdW-DF, please also cite:     %
     %                                                                      %
     %   R. Sabatini et al., J. Phys.: Condens. Matter 24, 424209 (2012).   %
     %                                                                      %
     %%%%%%%%%%%%%%%%%%%%%%%%%%%%%%%%%%%%%%%%%%%%%%%%%%%%%%%%%%%%%%%%%%%%%%%%


     Starting wfcs are   16 randomized atomic wfcs
     Checking if some PAW data can be deallocated... 

     total cpu time spent up to now is       71.1 secs

     Self-consistent Calculation

     iteration #  1     ecut=    60.00 Ry     beta= 0.70
     Davidson diagonalization with overlap
     ethr =  1.00E-02,  avg # of iterations =  5.0

     negative rho (up, down):  8.304E-03 0.000E+00

     total cpu time spent up to now is      109.5 secs

     total energy              =     -61.63168976 Ry
     estimated scf accuracy    <       0.87243860 Ry

     iteration #  2     ecut=    60.00 Ry     beta= 0.70
     Davidson diagonalization with overlap
     ethr =  5.45E-03,  avg # of iterations =  1.0

     negative rho (up, down):  6.603E-03 0.000E+00

     total cpu time spent up to now is      145.8 secs

     total energy              =     -61.57315248 Ry
     estimated scf accuracy    <       0.20981849 Ry

     iteration #  3     ecut=    60.00 Ry     beta= 0.70
     Davidson diagonalization with overlap
     ethr =  1.31E-03,  avg # of iterations =  2.0

     negative rho (up, down):  7.014E-03 0.000E+00

     total cpu time spent up to now is      183.1 secs

     total energy              =     -61.59099026 Ry
     estimated scf accuracy    <       0.03164889 Ry

     iteration #  4     ecut=    60.00 Ry     beta= 0.70
     Davidson diagonalization with overlap
     ethr =  1.98E-04,  avg # of iterations =  5.0

     negative rho (up, down):  2.110E-02 0.000E+00

     total cpu time spent up to now is      222.2 secs

     total energy              =     -61.58631270 Ry
     estimated scf accuracy    <       0.01592046 Ry

     iteration #  5     ecut=    60.00 Ry     beta= 0.70
     Davidson diagonalization with overlap
     ethr =  9.95E-05,  avg # of iterations =  5.0

     negative rho (up, down):  8.412E-02 0.000E+00

     total cpu time spent up to now is      261.6 secs

     total energy              =     -61.58651526 Ry
     estimated scf accuracy    <       0.00685458 Ry

     iteration #  6     ecut=    60.00 Ry     beta= 0.70
     Davidson diagonalization with overlap
     ethr =  4.28E-05,  avg # of iterations =  5.0

     negative rho (up, down):  1.085E-01 0.000E+00

     total cpu time spent up to now is      302.1 secs

     total energy              =     -61.58747794 Ry
     estimated scf accuracy    <       0.00245995 Ry

     iteration #  7     ecut=    60.00 Ry     beta= 0.70
     Davidson diagonalization with overlap
     ethr =  1.54E-05,  avg # of iterations =  4.0

     negative rho (up, down):  1.075E-01 0.000E+00

     total cpu time spent up to now is      340.6 secs

     total energy              =     -61.58686223 Ry
     estimated scf accuracy    <       0.00127792 Ry

     iteration #  8     ecut=    60.00 Ry     beta= 0.70
     Davidson diagonalization with overlap
     ethr =  7.99E-06,  avg # of iterations =  9.0

     negative rho (up, down):  9.364E-02 0.000E+00

     total cpu time spent up to now is      382.2 secs

     total energy              =     -61.58652634 Ry
     estimated scf accuracy    <       0.00057706 Ry

     iteration #  9     ecut=    60.00 Ry     beta= 0.70
     Davidson diagonalization with overlap
     ethr =  3.61E-06,  avg # of iterations =  2.0

     negative rho (up, down):  5.941E-02 0.000E+00

     total cpu time spent up to now is      419.9 secs

     total energy              =     -61.58583053 Ry
     estimated scf accuracy    <       0.00028400 Ry

     iteration # 10     ecut=    60.00 Ry     beta= 0.70
     Davidson diagonalization with overlap
     ethr =  1.77E-06,  avg # of iterations = 10.0

     negative rho (up, down):  4.768E-02 0.000E+00

     total cpu time spent up to now is      461.7 secs

     total energy              =     -61.58568653 Ry
     estimated scf accuracy    <       0.00014639 Ry

     iteration # 11     ecut=    60.00 Ry     beta= 0.70
     Davidson diagonalization with overlap
     ethr =  9.15E-07,  avg # of iterations =  5.0

     negative rho (up, down):  3.501E-02 0.000E+00

     total cpu time spent up to now is      500.4 secs

     total energy              =     -61.58570500 Ry
     estimated scf accuracy    <       0.00007453 Ry

     iteration # 12     ecut=    60.00 Ry     beta= 0.70
     Davidson diagonalization with overlap
     ethr =  4.66E-07,  avg # of iterations =  2.0

     negative rho (up, down):  2.684E-02 0.000E+00

     total cpu time spent up to now is      537.3 secs

     total energy              =     -61.58573500 Ry
     estimated scf accuracy    <       0.00002867 Ry

     iteration # 13     ecut=    60.00 Ry     beta= 0.70
     Davidson diagonalization with overlap
     ethr =  1.79E-07,  avg # of iterations =  2.0

     negative rho (up, down):  2.159E-02 0.000E+00

     total cpu time spent up to now is      574.2 secs

     total energy              =     -61.58573972 Ry
     estimated scf accuracy    <       0.00001562 Ry

     iteration # 14     ecut=    60.00 Ry     beta= 0.70
     Davidson diagonalization with overlap
     ethr =  9.76E-08,  avg # of iterations =  5.0

     negative rho (up, down):  1.884E-02 0.000E+00

     total cpu time spent up to now is      612.7 secs

     total energy              =     -61.58574920 Ry
     estimated scf accuracy    <       0.00000774 Ry

     iteration # 15     ecut=    60.00 Ry     beta= 0.70
     Davidson diagonalization with overlap
     ethr =  4.84E-08,  avg # of iterations =  2.0

     negative rho (up, down):  1.714E-02 0.000E+00

     total cpu time spent up to now is      649.4 secs

     total energy              =     -61.58575428 Ry
     estimated scf accuracy    <       0.00000169 Ry

     iteration # 16     ecut=    60.00 Ry     beta= 0.70
     Davidson diagonalization with overlap
     ethr =  1.05E-08,  avg # of iterations =  1.0

     negative rho (up, down):  1.662E-02 0.000E+00

     total cpu time spent up to now is      676.9 secs

     End of self-consistent calculation

          k = 0.0000 0.0000 0.0000 (312992 PWs)   bands (ev):

   -20.4868 -17.7398 -13.1838 -11.3761 -11.0564 -10.1915  -6.9996  -6.9798
    -3.8383  -0.9660  -0.7291  -0.5157

     the Fermi energy is    -5.4405 ev

!    total energy              =     -61.58575351 Ry

     total all-electron energy =      -234.878027 Ry
     estimated scf accuracy    <       0.00000053 Ry
     smearing contrib. (-TS)   =      -0.00000000 Ry
     internal energy E=F+TS    =     -61.58575351 Ry

     The total energy is F=E-TS. E is the sum of the following terms:
     one-electron contribution =    -146.55767988 Ry
     hartree contribution      =      75.16320526 Ry
     xc contribution           =     -17.15634638 Ry
     ewald contribution        =      46.63073349 Ry
     one-center paw contrib.   =     -19.66566600 Ry

     convergence has been achieved in  16 iterations

     negative rho (up, down):  1.662E-02 0.000E+00

     Forces acting on atoms (cartesian axes, Ry/au):

     atom    1 type  1   force =     0.00028720    0.00003498   -0.00052750
     atom    2 type  1   force =    -0.00188442    0.00050407   -0.00133401
     atom    3 type  1   force =     0.00238483    0.00082054    0.00135981
     atom    4 type  2   force =     0.00001973   -0.00015552    0.00030901
     atom    5 type  2   force =    -0.00086911    0.00088057    0.00083264
     atom    6 type  2   force =     0.00017939   -0.00123510    0.00044531
     atom    7 type  2   force =    -0.00011761   -0.00084954   -0.00108526

     Total force =     0.004491     Total SCF correction =     0.000308

     negative rho (up, down):  1.662E-02 0.000E+00

     negative rho (up, down):  1.662E-02 0.000E+00

     negative rho (up, down):  1.662E-02 0.000E+00

     negative rho (up, down):  1.662E-02 0.000E+00

     negative rho (up, down):  1.662E-02 0.000E+00

     negative rho (up, down):  1.662E-02 0.000E+00

     negative rho (up, down):  1.662E-02 0.000E+00

     negative rho (up, down):  1.662E-02 0.000E+00

     negative rho (up, down):  1.662E-02 0.000E+00

     negative rho (up, down):  1.662E-02 0.000E+00

     negative rho (up, down):  1.662E-02 0.000E+00

     negative rho (up, down):  1.662E-02 0.000E+00

     negative rho (up, down):  1.662E-02 0.000E+00

     negative rho (up, down):  1.662E-02 0.000E+00

     negative rho (up, down):  1.662E-02 0.000E+00

     negative rho (up, down):  1.662E-02 0.000E+00

     negative rho (up, down):  1.662E-02 0.000E+00

     negative rho (up, down):  1.662E-02 0.000E+00

     negative rho (up, down):  1.662E-02 0.000E+00

     negative rho (up, down):  1.662E-02 0.000E+00

     negative rho (up, down):  1.662E-02 0.000E+00

     negative rho (up, down):  1.662E-02 0.000E+00

     negative rho (up, down):  1.662E-02 0.000E+00

     negative rho (up, down):  1.662E-02 0.000E+00

     negative rho (up, down):  1.662E-02 0.000E+00

     negative rho (up, down):  1.662E-02 0.000E+00

     negative rho (up, down):  1.662E-02 0.000E+00

     negative rho (up, down):  1.662E-02 0.000E+00

     negative rho (up, down):  1.662E-02 0.000E+00

     negative rho (up, down):  1.662E-02 0.000E+00

     negative rho (up, down):  1.662E-02 0.000E+00

     negative rho (up, down):  1.662E-02 0.000E+00

     negative rho (up, down):  1.662E-02 0.000E+00

     negative rho (up, down):  1.662E-02 0.000E+00
 BEEFens 2000 ensemble energies
             -0.131825833113272E+01
             -0.413010562526437E-01
             -0.252378216692866E+00
              0.886395716806707E+00
             -0.420160650678555E+00
             -0.294366323454617E+00
             -0.987717856819781E+00
             -0.197984292921135E+01
             -0.643925752926275E+00
             -0.698751104924881E+00
             -0.727194355657007E+00
              0.142111052223139E+00
              0.749268054367547E-01
             -0.139342469092681E+00
              0.794655679459377E-01
              0.948379175998044E+00
             -0.379888954609133E+00
             -0.143445858015701E+00
              0.503664036983578E+00
             -0.221651825495785E+01
              0.113371985939222E+01
             -0.356484623070978E+00
             -0.129276505659979E+00
             -0.166647639435737E+00
              0.930409215442989E-01
             -0.853968583552662E-01
              0.176465127988539E+01
             -0.505377980882892E+00
             -0.146209303609311E+00
             -0.114755172985813E+01
              0.131992463070586E+01
             -0.265065635012132E-01
             -0.839041735280688E+00
              0.329172488793251E+00
             -0.568601191827591E-01
              0.627586004246373E+00
              0.577968703942018E-01
             -0.401542932619652E-01
              0.811536397098795E+00
             -0.197360466170260E+01
              0.110405136067533E+01
              0.243996845583188E+00
             -0.293419725719135E+00
             -0.571060387443241E+00
              0.247856179932407E+00
             -0.379504178070439E+00
              0.104449131492226E+01
              0.697044030461822E+00
             -0.336635966657495E+00
             -0.652642031590558E+00
             -0.624356558549307E+00
             -0.765313172411600E+00
              0.497012567679734E+00
             -0.105278614882616E+01
              0.341304477450848E+00
              0.123115003033534E+01
              0.155321110397174E+01
              0.630759452109994E+00
              0.325030334713869E+00
              0.679090329616077E+00
              0.184371798557520E+01
              0.296879749986132E+00
             -0.110058853357945E+01
             -0.168540953634254E+00
             -0.610939277543071E+00
              0.124243557235462E+01
             -0.141170568570370E+01
             -0.117046788786914E+01
             -0.716827206344723E+00
             -0.447587208666192E+00
             -0.742626091684061E+00
              0.560517068900764E+00
              0.279021546386993E+00
              0.338648058582426E+00
             -0.775848181406449E+00
             -0.713793298984330E+00
             -0.120351156560027E+01
              0.596398621323862E+00
             -0.706825599955172E+00
              0.671174773066414E+00
             -0.182873288225160E+00
             -0.549560704296569E+00
             -0.967228608385944E+00
             -0.289786208608851E+00
             -0.352896129443188E+00
             -0.281555980528782E+00
              0.777087106826291E+00
              0.161084878536942E+01
             -0.938123778656792E+00
             -0.158538315544137E+01
             -0.359353045737572E+00
              0.216482695615204E+01
             -0.112418819056859E+01
              0.606354285579107E+00
             -0.244086450821049E+00
             -0.116038550921978E+01
              0.554226896599047E+00
              0.572206568167237E+00
             -0.294396323083900E+00
              0.542702540249694E+00
             -0.479609933508200E+00
             -0.127915731237635E+01
              0.207392914677621E+01
              0.906467798496589E+00
              0.376642005283799E+00
              0.249284490141624E+00
              0.492576887589574E+00
              0.162060172888637E+01
             -0.539260455682589E+00
              0.446531890401392E-01
             -0.275521775500474E+01
              0.337655357086391E+00
             -0.131110251746810E+01
              0.244948371836185E+00
              0.437191986925267E+00
             -0.762006027147645E+00
             -0.982912344089535E+00
              0.288387279649154E-01
             -0.628627461202520E+00
              0.928888811648499E+00
             -0.892054249456589E+00
             -0.204454014510015E+00
             -0.776992795064676E+00
             -0.639445723260739E-01
              0.130758340501136E+00
              0.500175450665132E+00
             -0.940711639922753E-02
             -0.116342567272401E+00
              0.137383876217753E+01
              0.185055135282095E+01
              0.100390713663016E+01
              0.123691536072058E+01
             -0.266971255539914E+00
              0.140886529678323E+00
              0.101910269132905E+01
              0.166731990997001E+00
             -0.153513294390963E+01
             -0.915605908566915E+00
             -0.977475066625408E+00
             -0.590131849945907E+00
              0.502372221959817E+00
             -0.245653646676498E+01
             -0.229707604629897E+00
              0.950513935774023E+00
             -0.815099325882072E+00
             -0.552315411388502E+00
              0.120128309753193E+01
              0.998616238125827E+00
             -0.552989289961483E+00
              0.738762481933100E+00
             -0.505072991219189E+00
              0.762721037645424E+00
              0.134302584903062E+00
              0.176169385937380E+00
             -0.162468076280242E+01
             -0.951894830662363E+00
             -0.175331764356940E+00
             -0.910392345288908E-01
             -0.873848763270319E+00
              0.225382044578236E+01
             -0.188654189127186E+00
             -0.511583651531553E+00
              0.769508562390117E+00
             -0.873966114683328E+00
             -0.779763039694552E+00
              0.665959834693350E+00
              0.254293138328881E+00
              0.214177318218210E+00
              0.355311013903714E+00
             -0.209228339481511E+00
              0.158407714810668E+00
              0.116228403764443E+01
             -0.514047707411539E+00
              0.460072747888950E+00
              0.177308448142584E+01
              0.629657233348044E+00
             -0.686978314513329E-01
             -0.428745604706897E+00
              0.312761268798732E+01
             -0.535743385647553E+00
              0.805089087664809E+00
              0.657438459448461E+00
              0.512782599499012E+00
              0.186360287327099E+01
              0.902160829014287E+00
             -0.105645193742900E+00
              0.520398342588173E+00
              0.106266721355290E+01
              0.764072146519188E+00
             -0.125269822936799E+01
              0.190200535954956E+01
             -0.173010815492481E+01
             -0.174218443479756E+00
              0.110982678262705E+01
              0.398046911113885E+00
              0.113587964722134E+00
              0.515572557185117E+00
              0.282158933106834E+00
              0.639608695338958E+00
             -0.124652686085245E+01
              0.646537236073179E-01
             -0.455552615562654E+00
             -0.940446969866835E-01
             -0.726209695019460E-01
             -0.285880061301571E+00
             -0.135510751943894E+00
              0.166417757910917E+01
             -0.876019799664998E-01
             -0.569002403699947E+00
             -0.155498788028153E-01
              0.293830809186684E+00
             -0.130700017406541E+01
             -0.117642276650714E+01
             -0.667566512097518E+00
             -0.126337311683489E+01
             -0.385862186452772E+00
             -0.799365007206366E+00
              0.357590852907448E+00
              0.633544882430817E-01
             -0.269593435291611E+00
             -0.156208054663432E+00
              0.888376418879009E-01
             -0.219195056342776E+00
              0.130694796401234E+01
             -0.179364917618057E+01
             -0.263351418666579E+00
             -0.253957262751175E+00
              0.298177322412910E+00
              0.464688020939954E+00
             -0.104125159965593E+01
             -0.215232893080327E+00
              0.901780564296979E+00
             -0.367663027303543E+00
              0.266216198812475E+00
              0.653255330631684E+00
             -0.930886946435372E-02
              0.230328276644204E+01
             -0.164254268789044E+00
             -0.686328457794184E+00
             -0.219340256036986E-01
             -0.584959313330613E+00
              0.110037310668169E+01
             -0.102762698245277E+01
              0.301392999122070E+00
              0.939984913487766E+00
             -0.252529241276077E+00
              0.235792007502320E+01
              0.255871897383020E+01
             -0.143119486999010E+01
              0.115532742909648E+01
              0.510880646344482E+00
             -0.114712808669616E+01
              0.334559630083983E+00
              0.906212461816775E+00
              0.979288143152818E+00
              0.944740444552359E-01
              0.394994119622153E+00
              0.153057971961791E+01
             -0.463857265272993E+00
              0.167114899628534E+00
              0.131855218918997E+01
             -0.717123484729229E+00
             -0.533185105590369E+00
              0.122765950125991E+01
              0.627362374747629E+00
              0.153278026643952E+01
              0.729421590467944E+00
              0.305691677965057E+00
              0.491617505343270E+00
              0.872696528918920E+00
             -0.110185426430596E+01
              0.178480950846571E+00
              0.618843530703604E+00
              0.221826367255128E+00
              0.501975748221402E+00
             -0.127001065196545E+01
              0.625568217638843E+00
             -0.858778258954956E+00
             -0.625849347606126E+00
              0.417523931207773E+00
             -0.143105445428267E+00
              0.123317158649145E+01
             -0.221321980584333E+00
              0.597221159280916E+00
              0.589062027461461E+00
              0.153067485685643E+01
              0.103649083850153E+01
              0.104583940705026E+01
             -0.173474702413579E-03
             -0.255585087073663E+00
             -0.588490507134710E+00
              0.168045862523533E+01
              0.166719459395412E+01
              0.804868432218857E+00
             -0.599621989078400E+00
              0.986006547388742E+00
              0.545075411542246E-01
              0.309486808125325E+00
              0.142792179954604E+01
             -0.652979065621486E-01
             -0.202802836127253E+00
             -0.383192961614192E+00
             -0.128413913727883E+01
              0.194036829322525E+01
              0.107269878966830E+01
             -0.133493119732676E+01
             -0.465044613731897E+00
              0.492902101212334E+00
             -0.205476074139140E+00
              0.133975427782835E+01
              0.304584107962810E+00
              0.164006926580903E+01
              0.644911888301059E+00
             -0.433184452414185E+00
              0.329598606624003E+00
             -0.149748029758278E+00
             -0.472423256807001E+00
              0.341907181819491E+00
              0.294227508633703E+00
              0.183371666310700E+01
              0.152531700888125E+01
              0.116634755895903E+01
              0.132229764761154E+01
              0.143173974598009E+00
             -0.506938358691611E+00
              0.261859404935526E+00
             -0.657760986985028E+00
             -0.117294039330755E+01
             -0.112281792807675E+01
             -0.666920694497176E+00
             -0.217438934491260E+01
             -0.781535072311513E+00
             -0.175768308780533E+01
              0.428850163171716E+00
             -0.900790178519003E+00
              0.106882944111776E+01
             -0.201630132474560E+01
             -0.588777208920508E+00
              0.717060844670218E+00
              0.435674138823511E+00
             -0.185418919642378E+01
              0.102989924630360E+01
             -0.583745833788905E+00
              0.112521592029812E+01
             -0.534417691528485E+00
             -0.158391497878923E+01
              0.369271399921899E+00
             -0.134012577739065E+01
             -0.161780695202021E-01
             -0.458869330814986E-01
              0.822023182678543E+00
              0.253613797396730E+01
             -0.848852248153741E+00
             -0.755326498796885E+00
             -0.155798146885225E+00
             -0.138050808461534E+00
             -0.160732469358993E+01
             -0.112957608744879E+01
              0.987276380022445E+00
             -0.327137281875832E+00
              0.480538407220023E+00
             -0.990435684265292E+00
             -0.336701336786061E+00
             -0.835806536671368E+00
              0.954930967456045E+00
              0.221277210465908E+00
             -0.496786683672886E+00
             -0.389148926664591E+00
              0.290377698462200E+00
             -0.153198385157026E+00
              0.796504039830373E+00
             -0.535277164727459E+00
              0.266438597742587E+00
              0.689157982939610E+00
              0.229221060199256E+00
             -0.512134204484473E+00
              0.311159855206141E+01
              0.123145779074187E+01
              0.220792990675121E+00
              0.108686859369525E+00
             -0.122277041481344E+01
              0.681490832320126E+00
             -0.159358211199363E+01
             -0.715848677283049E+00
             -0.122116034198097E+01
             -0.364167026967637E+00
              0.120325620140144E+01
             -0.117638740985500E+01
              0.574868298977186E+00
             -0.938904619590675E-01
              0.171041536072112E-01
             -0.604548284713458E+00
             -0.822169497988920E+00
             -0.159562030920121E+00
             -0.616719169757636E+00
             -0.437252908437510E+00
             -0.800306692247790E+00
             -0.905931867069749E-01
             -0.633691191626104E+00
             -0.968981830353601E+00
              0.417774806000737E+00
             -0.213908066361913E+00
              0.504459323264343E+00
              0.161188720218770E+00
             -0.153466468649996E+01
             -0.100685590482213E+01
             -0.105213223865535E+01
              0.621244994118516E+00
             -0.157859356827907E+00
             -0.122975931636977E+01
              0.114810156409567E+01
             -0.857966452813304E+00
              0.120943412753638E+01
             -0.638824887493672E+00
             -0.991702327548928E+00
              0.475007197471252E+00
             -0.147640119925713E+01
             -0.612568856141280E+00
              0.115791736570147E+01
              0.414138874302719E+00
             -0.911184584719699E+00
              0.114538341651594E+01
             -0.328368592923647E+00
             -0.760233437472374E+00
             -0.600278722720891E+00
             -0.106178758226336E+01
              0.537127495534886E+00
             -0.174498870873785E+01
             -0.151407038759006E+01
             -0.159755022084145E+00
             -0.582144507794267E+00
             -0.123982978379636E+01
              0.155405957077717E+01
              0.279957053172327E+01
             -0.388935390535222E+00
             -0.829136544627005E-01
             -0.120181079836300E+01
              0.133880804867619E+01
              0.454081387256672E+00
             -0.442170926092240E+00
             -0.715410142302831E+00
              0.284562360500831E+00
             -0.119496805618533E+01
             -0.209285309457855E+00
             -0.172068994883832E+01
              0.691160341710990E+00
              0.208103961231238E+00
             -0.130885775032711E+00
             -0.261288243483854E+00
             -0.884045631119156E+00
             -0.285058851825846E+00
              0.278986613452279E+01
             -0.305768400775605E+00
             -0.999201575875748E+00
             -0.140890990390425E+01
              0.293868296570176E+00
             -0.789585291252378E+00
              0.219354927638115E+00
              0.688742455268725E+00
              0.949604423678370E-01
              0.747365480406627E+00
              0.388461256300733E+00
              0.117766257277339E+01
              0.472236365261228E+00
             -0.749035884355606E+00
              0.115083000530729E+01
              0.687046196164832E+00
              0.257257197574855E+00
              0.723019624057114E+00
             -0.667763630549224E+00
              0.143763021574496E+01
              0.559175331722993E+00
             -0.719399051360024E+00
             -0.109913429560994E+00
             -0.328377269813501E+00
              0.285261695588646E+00
             -0.502517412519584E+00
             -0.278133290254373E+00
             -0.271796584974417E+00
              0.163429494128640E+01
              0.119532255870899E+01
             -0.127543235240107E+01
             -0.183377891951425E+00
             -0.994965963772398E+00
             -0.251883193735309E+00
             -0.422411387563294E+00
              0.241911938747341E+00
             -0.665349893999129E-01
             -0.590662647703328E+00
              0.375290040389146E+00
             -0.198674680105055E+00
             -0.129173138682567E+00
              0.176419807450050E+01
              0.284816310180331E+00
             -0.169938437618536E+01
             -0.748349951361991E+00
              0.195449231767113E+01
              0.471838384737994E+00
             -0.168071950197641E+00
              0.222947268129652E+01
             -0.319809076787363E+00
             -0.141891667141620E+00
             -0.261404144944594E+00
              0.333908428915824E+00
              0.695000759680276E+00
              0.460217670451157E-01
              0.576637723668950E+00
             -0.202495111232053E+00
             -0.839384049149561E+00
             -0.790100781760568E+00
             -0.976456740835289E+00
              0.802904406547012E+00
              0.299401801804170E+00
              0.765382018759611E+00
              0.327735519903650E+00
              0.183724064557122E+01
              0.422639554718449E+00
             -0.154496822814859E+01
             -0.666689893307647E+00
              0.304098218112101E-01
             -0.566073758184502E+00
              0.129727530212145E+01
             -0.333452963571407E+00
              0.344602107072072E+00
              0.113653660479632E+01
             -0.165666077526141E+01
              0.298553766368183E+01
              0.397390574714454E+00
              0.483387735058850E+00
              0.777781476160311E+00
              0.566319817917496E-01
             -0.393024012041678E-01
              0.645968884213421E+00
             -0.714330988152891E+00
              0.177550461381887E+01
              0.155129480391499E+01
             -0.787057286705225E+00
              0.350168732290872E+00
              0.147316902512907E+01
             -0.430783582110757E+00
              0.431418681524084E+00
              0.635905097108285E+00
              0.830127135535726E+00
             -0.149347670303417E+01
             -0.944455230966739E-01
             -0.512833597447381E+00
             -0.130202605411485E+00
             -0.152826689414398E+00
              0.172752661792190E+00
             -0.238163646347195E+00
             -0.624623260822414E+00
              0.364584660372944E+00
              0.107005404536232E+00
              0.107641694535878E+01
             -0.957248227944114E+00
              0.955221173910255E+00
              0.103997831533778E+01
             -0.154503362240884E+00
              0.148111261044764E+01
             -0.136007728764370E+01
             -0.208875992890543E+01
             -0.172982605966728E+00
             -0.142004571058820E+00
             -0.140629473007756E-01
              0.158163003109883E+01
             -0.533626657764152E-02
              0.869096869999790E+00
              0.124622545811702E+01
              0.787538186208721E+00
             -0.126694743534145E+00
              0.118609177560747E+01
             -0.343409179645276E+00
             -0.810709538620026E+00
             -0.695777955838493E+00
              0.229646197302821E+00
              0.698561637386631E+00
             -0.403522055968448E-01
              0.665531734535460E+00
              0.199276775627046E-01
              0.110411754211107E+01
              0.318513045850186E+00
              0.156850944666109E+00
              0.428573671520454E-01
              0.586103551449178E+00
              0.832049855208876E+00
              0.282634614832832E+00
             -0.753744168289203E-01
             -0.110445578443233E+01
              0.613870428015314E+00
              0.425724589353237E+00
              0.655592523936145E+00
              0.606997358374032E+00
              0.737801349307937E+00
             -0.197162781049629E+00
              0.715081601507856E+00
             -0.600641621513148E+00
             -0.363507498082480E-01
             -0.105872302086436E+01
             -0.707108178164427E+00
              0.884401582502768E+00
             -0.177785772042438E+01
              0.474115562489954E+00
              0.275912457711227E+00
              0.175499450719471E+01
             -0.221948974840052E+00
              0.675900009214372E+00
             -0.224623062809362E+00
             -0.100667092020492E+01
             -0.130923315888710E+01
             -0.331530134324032E+00
             -0.185376204039849E+01
              0.141373676872037E+00
             -0.415609488103630E+00
              0.668869351456183E+00
              0.502941380900852E+00
             -0.598490229245492E+00
             -0.627824948024275E+00
              0.876271568695680E+00
             -0.116490155205287E+01
             -0.280743986759485E+00
             -0.322404304462794E+00
              0.565941659331833E+00
              0.135649900785440E+00
              0.700364399238986E-01
             -0.293441018638124E+00
              0.107944682922921E+01
             -0.125330346899324E+01
              0.132414596591429E+00
              0.122407441802956E+01
             -0.754154351491728E+00
              0.797917126469434E-01
              0.588430662031509E-01
             -0.130820066145398E+01
             -0.743451834814007E+00
             -0.185298556023015E-01
              0.644826215445598E+00
              0.711205707899955E+00
              0.931094245613480E-01
             -0.256482322315277E+00
              0.339681895166795E+00
             -0.806487665951416E+00
             -0.117274628783406E+00
             -0.107279031648757E+01
             -0.527605691026124E+00
              0.102476492733992E+01
             -0.617871158929256E+00
              0.144029590837137E+01
             -0.485863808067763E+00
              0.665339306683440E+00
              0.518128375503787E+00
             -0.120887893022492E+01
             -0.502884217431028E+00
              0.198866980291390E+00
             -0.860915484397305E+00
             -0.852022678069684E+00
             -0.181733714208977E+01
             -0.112245300600448E+01
             -0.998116201936734E+00
             -0.926240567381897E+00
              0.470825262235230E-02
              0.526180799646092E+00
              0.257610441986948E+00
              0.585834685594539E+00
             -0.119367473144450E+01
              0.269858019142459E+00
              0.598149269670263E+00
             -0.139871276575888E+01
             -0.113481032087362E+01
             -0.791397259811552E+00
             -0.699903789820955E+00
              0.279522643574857E+00
             -0.780528168947221E-01
             -0.846392316150819E+00
              0.544621804586807E+00
             -0.480361876534029E+00
              0.106057001945606E+01
             -0.178490314523606E+01
              0.130985839645567E+01
             -0.258998637203375E+00
             -0.909341602431229E+00
             -0.564374426646353E+00
             -0.315251293940166E-01
              0.101511168374023E+01
             -0.140354969014752E+01
             -0.254873612354750E+00
             -0.330430818602473E+00
              0.811075030797454E+00
              0.161648361567233E+01
             -0.204583124172606E+01
              0.185481477983797E+01
              0.762345523429059E+00
             -0.155139012115819E+01
             -0.621482357889759E+00
              0.161506721107270E+01
              0.114166657863525E+01
             -0.437782590570642E+00
             -0.153793581075612E+00
              0.396166482651015E+00
              0.160510349958102E+01
             -0.122814633288958E+01
              0.248127013866193E+00
             -0.161045011504240E+00
              0.516981454415928E+00
             -0.141852585586812E+01
             -0.364544442369852E-01
             -0.526190284026000E+00
              0.989549540691657E+00
              0.766506050916723E+00
             -0.181508273959842E+01
             -0.951014407254581E+00
             -0.410666236968074E+00
             -0.913663292717833E+00
             -0.250102501407876E+00
             -0.347685050158362E+00
              0.934671194282862E+00
              0.883570103775704E+00
             -0.184840300773077E-01
             -0.897855115739765E+00
             -0.175258555861549E+01
              0.104857952878606E+01
             -0.920954190652755E+00
             -0.781397826627436E+00
              0.154611718067810E+00
             -0.765311867464044E+00
             -0.814986183320713E+00
             -0.650039222534345E+00
             -0.107162901111469E+01
             -0.476373368716648E+00
             -0.101377784895686E+01
              0.110913902176177E+01
              0.118154584227638E+01
             -0.239989780206413E+00
             -0.410817198081096E+00
              0.788801983776519E-01
              0.864650699215044E+00
             -0.171412710835299E+01
             -0.488186934216718E+00
              0.100022562151273E+01
              0.147050327560697E+01
             -0.184308031798859E+00
              0.211815192137632E+00
              0.107243100845937E+01
              0.304962367786126E+00
              0.626740136131012E-01
             -0.785199607881205E+00
              0.272278434462445E+00
             -0.654260857507914E+00
             -0.133008155566050E+00
             -0.439476711279150E+00
             -0.277412064039598E+00
              0.501873476909373E+00
              0.160804961407636E+01
             -0.161555477576033E+00
              0.298363462232576E-01
             -0.186241369845403E+01
             -0.371141606522411E+00
             -0.718682119133212E+00
             -0.328886227342746E-01
             -0.979479204246184E+00
              0.186615714295021E+01
              0.177107577372927E+01
              0.381455916245470E+00
             -0.495584451756544E+00
              0.380690463266164E+00
              0.391801797109401E+00
             -0.936787870662505E+00
             -0.188367048119778E+00
              0.421085759383951E+00
              0.240953923272019E+00
              0.102507686244055E+01
              0.782997581521971E+00
             -0.429064505716328E+00
              0.417061065150542E+00
             -0.198189958131486E+01
             -0.325101789641771E-01
              0.183565235872535E+01
              0.389337282245350E+00
             -0.635384099050764E-01
              0.535029521794830E+00
             -0.473729636732911E+00
              0.175321358158551E+01
             -0.430078814022659E+00
              0.154951172377701E+01
              0.781804984392898E+00
             -0.915239104355647E+00
              0.679700658462395E+00
             -0.561224735488752E+00
             -0.138341659150161E+01
             -0.167483808295959E+00
             -0.109565994600662E+01
             -0.105288908352473E+01
             -0.223605956037742E-01
              0.781756521113635E+00
             -0.300855226798902E+00
             -0.607542726835440E+00
              0.148624433337116E+00
             -0.131326546309755E+01
             -0.579460093306960E-01
             -0.177244575690593E+01
              0.106061686515190E+01
             -0.883832537459073E-01
             -0.992220716705744E+00
             -0.309540353076361E+00
              0.350320383627946E+00
             -0.787150034250243E+00
             -0.891820799307243E+00
              0.185907446717574E+01
             -0.579158832278456E+00
             -0.742766531673695E+00
              0.657907982372415E+00
             -0.467227806954686E+00
              0.117595948938007E+01
             -0.517890358840862E-01
              0.411160594582061E-01
              0.224423184311097E+01
             -0.154195675130054E+00
             -0.792794211403775E+00
             -0.997903742509159E+00
             -0.103472403729671E+01
             -0.766857032695455E+00
              0.600221276017601E+00
              0.650748909249600E+00
              0.582182801366114E+00
              0.150707798184611E+01
              0.115750988093246E+00
              0.479471227492883E+00
             -0.115947606141403E+01
              0.400647206257236E-01
             -0.300631951059346E+00
             -0.551908277032105E+00
             -0.164108030063026E+00
              0.668089150436387E+00
              0.771178315137490E+00
             -0.565767171528990E-01
              0.275171571075937E+00
              0.548778135832113E+00
              0.685048753456571E+00
             -0.476517851491116E+00
             -0.189608552202296E+00
              0.735956517452951E-02
             -0.532798363043534E+00
             -0.509825320252091E-01
             -0.844427772764696E+00
              0.160977778872490E+01
              0.124388642471377E+01
             -0.374264943741279E+00
              0.347368816813032E+00
             -0.123514446547366E+00
             -0.666606150952060E+00
              0.770933376469825E+00
             -0.190364270518932E+00
              0.748327965481289E+00
             -0.957753310633439E+00
              0.354969725462784E+00
             -0.149531618817388E+00
             -0.108539297569138E+01
             -0.478656863181822E+00
              0.480043311752158E+00
             -0.200847996259447E+01
              0.780146241077334E+00
              0.942004962650471E+00
             -0.211406332058907E+00
             -0.153013401119284E+00
             -0.751715918924809E-01
              0.552499213358841E+00
             -0.687422599576331E+00
              0.617718870267413E+00
              0.665922546619919E+00
             -0.180789864116509E+01
             -0.752564708027045E+00
              0.489913130669047E+00
             -0.261483433163268E+00
              0.101824296999356E+01
             -0.126386069299516E+01
             -0.217838309444964E+00
             -0.803239284855349E+00
             -0.266080261497477E+01
              0.160975927677712E+01
             -0.121639213808268E+01
             -0.138017049927714E+01
              0.121535935594497E+00
              0.262565442572281E+01
              0.151842215980036E+00
             -0.685943510528423E+00
             -0.287994560720595E-01
             -0.761693910061914E-01
             -0.173781744336004E+01
             -0.111064099109196E+01
              0.175333649731631E+01
             -0.257769287484425E+00
             -0.721796450084483E+00
              0.979129788413974E+00
             -0.665042577826440E+00
              0.668865478052581E+00
              0.969139599837372E+00
             -0.106443153804378E+01
             -0.582294037541221E+00
             -0.650097132165607E+00
             -0.362843647982497E+00
             -0.395191935095474E+00
             -0.395970002570861E+00
              0.410409137059698E+00
             -0.725123983213561E+00
              0.556048281252600E+00
              0.110579330704856E+01
             -0.114635819416849E+00
             -0.428998442657783E+00
              0.311860740355154E+00
              0.110342635987294E+01
              0.113208240846465E+01
              0.230741166849084E+00
             -0.233561462954754E+00
             -0.239241922980349E+00
             -0.108929346063407E+01
              0.826977528289696E+00
             -0.503522153352749E+00
              0.470622570401334E+00
             -0.256525612468968E+00
              0.519277785507542E+00
              0.353332859937386E+00
             -0.166902742408152E+01
             -0.506567768933314E+00
             -0.159629180942505E+01
             -0.834680813486747E+00
              0.871008054995794E-01
             -0.405540263747514E+00
              0.723431004289540E+00
             -0.575952444276317E+00
              0.727655791155062E-01
              0.142461372880408E+00
              0.141629523294677E+01
              0.730457150223778E+00
             -0.676446355263896E+00
             -0.498373894234447E-01
              0.315888831114547E+00
              0.747981848608386E+00
             -0.919951034935540E-02
              0.115828564876930E+01
              0.558949879111143E+00
              0.183401135776469E+01
              0.696048970423819E-01
              0.124704436913111E+01
             -0.562671197318145E+00
             -0.796537715105156E+00
              0.335255477029035E-01
              0.234789522616611E+00
              0.450380639475217E+00
             -0.442582030970003E+00
             -0.215598324551769E+00
              0.469967237978973E+00
             -0.966031570399613E+00
             -0.122888644875287E+01
              0.162553187884312E+01
             -0.123411438802274E+00
             -0.731796168078593E+00
             -0.113733455580272E+00
             -0.282793346348388E+00
              0.915446088242753E+00
              0.735835480646124E+00
             -0.410032697344853E+00
             -0.222788914411920E-02
             -0.522505822545717E+00
             -0.728018751719882E+00
             -0.484363934935839E+00
             -0.199177736187720E+01
              0.376233258134731E-01
             -0.130455267414087E+01
             -0.120523577211950E+01
             -0.748296205062442E+00
              0.462909325702221E+00
             -0.779870922035642E+00
              0.499252478990802E+00
             -0.132855964662540E+01
              0.898864665722421E-03
             -0.866254193327397E+00
              0.161352720182079E+00
              0.155782533125661E+00
              0.727330913425699E+00
             -0.420517679938655E+00
             -0.383976666178374E+00
              0.658315850528531E+00
              0.120520371452307E+01
              0.659045065911612E+00
              0.227452420591458E+00
             -0.152150017325152E+01
             -0.326251558573679E+00
             -0.556621976062038E+00
             -0.125091072021540E+01
              0.869358273480232E+00
             -0.701030441433629E+00
             -0.157872741744115E+00
             -0.570209392704056E+00
             -0.200684413550711E+01
              0.114913426137932E+01
             -0.373561437301706E+00
              0.780237453292790E+00
             -0.151536774252176E+01
              0.133015159418618E+01
              0.127504563491181E+00
             -0.514602532247715E+00
              0.221433919826262E+00
             -0.396867979907499E+00
             -0.125517691076238E+01
              0.356732071164866E+00
              0.818787449315965E+00
             -0.359294764541005E-01
             -0.701429813991972E+00
             -0.327812823776846E+00
              0.429262746045418E+00
              0.764249438168806E+00
              0.125096329945762E+01
              0.446217593958561E+00
             -0.472364184722162E+00
              0.206087304861398E+01
              0.420440617946222E+00
              0.973869037077101E+00
             -0.335469851509664E+00
              0.605838983882108E+00
              0.496533279493554E+00
             -0.124698140317458E+01
             -0.459493385513324E+00
             -0.821329665228877E+00
             -0.860976800318941E+00
             -0.248911522255728E+00
             -0.158917978978826E+00
             -0.956624572774871E+00
             -0.224305501406801E+01
             -0.544001390322101E+00
              0.272184332402253E+00
              0.122051691231214E+00
              0.334352345320308E+00
              0.808830701030653E+00
              0.205989720096887E+00
              0.637718958702739E+00
             -0.885500465055617E+00
              0.867229046345985E+00
             -0.790543888362588E+00
             -0.134307488585265E+01
              0.424942648277446E+00
             -0.862656546928648E+00
             -0.803458904857791E+00
             -0.323445993519196E+01
             -0.139999635303069E+00
              0.171851493602770E+01
              0.810141629635739E+00
             -0.200565963483696E+00
             -0.220813465641007E+00
              0.920147772575397E+00
              0.129192752181512E+01
             -0.786873016498981E+00
             -0.270424661651825E+00
             -0.746039250108045E+00
             -0.669109974181753E+00
             -0.590874403420655E+00
              0.209320102409485E+00
              0.140426743829798E+01
             -0.132017838476929E+01
             -0.111110006785377E+01
              0.800272812939147E-01
             -0.312446480684892E+00
             -0.353660815541988E+00
             -0.180481969563396E+01
              0.128810922730809E+01
              0.387805135251265E+00
              0.193412831955096E+00
              0.106360971587360E+01
             -0.671223388509708E+00
              0.688984914918773E+00
              0.588218504327960E+00
              0.247829503930532E-01
             -0.172350274730053E+00
              0.158744825135831E+00
             -0.319551841845048E+00
              0.108555062838263E+01
             -0.798333733978269E+00
              0.951776038417248E+00
              0.188727083236357E+00
              0.356137157527870E+00
              0.391013019697333E+00
             -0.164409698607381E+01
              0.211793219843925E+00
             -0.135428472406686E+01
             -0.972911056625668E+00
             -0.964926674947054E+00
             -0.108487769578695E+01
             -0.550682969128324E-02
              0.394294039606251E+00
              0.101647324390028E+01
              0.142121005118137E+00
              0.302643700586495E+00
             -0.140217608259524E+01
             -0.571983755070242E+00
              0.652425686339327E+00
             -0.907444507063140E-01
             -0.793489034046297E-01
             -0.200000779436317E+00
              0.722921558754229E+00
             -0.183719756608761E+01
              0.276421270836427E+00
              0.412093785298377E+00
              0.785487426570894E+00
              0.750045511311278E+00
             -0.114729415584823E+01
              0.336279675827483E+00
              0.138703768127087E+00
              0.148631428666425E+00
              0.132005828312566E+00
             -0.394201310607571E+00
             -0.903499310226187E+00
              0.368326372817813E+00
              0.116799201074543E+01
              0.326395288412229E-02
              0.288007302034841E+00
              0.248042722854225E+00
             -0.638121742651472E+00
             -0.680736064602694E+00
             -0.250837511944155E+01
             -0.764800712677955E+00
             -0.120896773755011E+01
             -0.122122354481681E+00
             -0.139427947551824E+01
              0.152817962849599E+01
             -0.691391839554020E+00
             -0.111835709045443E+01
             -0.317168723757896E+01
              0.136452401272854E+01
              0.303242245037861E+00
              0.232188821815797E+00
             -0.123346097492320E+01
              0.751101205762570E-01
             -0.335260803041874E+00
             -0.629016040053334E+00
              0.170829506365595E+00
              0.656505191682506E+00
              0.958891760670710E-01
             -0.432344992134603E+00
              0.923332336911180E-01
              0.283737770304651E-01
              0.197694739206781E+00
             -0.136458750658182E+01
              0.150045898670676E+01
             -0.842638023803767E+00
             -0.538141215441044E+00
             -0.107695517194987E+01
             -0.224773119214685E+01
              0.914120462855617E-01
             -0.118409135431401E+01
             -0.356048130909474E+00
              0.615088644049923E+00
             -0.558284257839794E+00
             -0.255730795842540E+00
             -0.272427707239661E+00
             -0.385316203835794E+00
              0.764188927157554E-01
              0.104660957889708E+01
             -0.101251738524594E+01
              0.213975164215631E+01
             -0.521125519226628E+00
              0.648720952717001E+00
             -0.397495016805984E+00
              0.236705736340148E+00
             -0.244648207602491E+00
              0.893926796091259E+00
              0.127352021711908E+01
              0.365728481487638E+00
              0.872403359679806E+00
             -0.578686605674958E+00
             -0.162696849896936E+00
             -0.480967623071685E+00
              0.128021423740713E+01
              0.110641813974130E+01
              0.803418074220286E+00
             -0.259002065418059E+00
             -0.512513659852554E+00
              0.485897587132776E+00
             -0.595796370325618E+00
             -0.295119875946844E+00
             -0.114782507090761E+00
             -0.739216073283462E+00
              0.987736673343480E+00
             -0.232900411549253E+00
              0.726482167936315E+00
              0.470618679988252E+00
              0.301572683442444E+00
             -0.686781786984015E+00
              0.489391184562196E+00
             -0.273948998438425E+00
             -0.133862856277755E+00
             -0.147736685830981E-01
             -0.963744054525943E+00
              0.156519970520753E+01
             -0.541575967192072E+00
              0.807172545624191E-02
              0.512428649591142E+00
              0.427345445643263E+00
              0.157914960386346E+01
             -0.452575350468440E+00
              0.151752269601477E+01
              0.134779867099151E+01
             -0.187616379909307E+01
              0.137376598252607E+00
             -0.365729385881827E+00
              0.245039049602370E+00
              0.793510986158936E-01
              0.450007316775814E+00
              0.130851436218758E+01
              0.204442731274579E+01
             -0.147242647885858E+01
              0.153564088483805E+01
             -0.206159286385736E+01
             -0.177036840425528E+01
             -0.309407928575836E+00
              0.230198805597031E-01
              0.161598562996732E+01
              0.636527371682302E+00
             -0.253663309581206E+00
             -0.166966464648246E+01
              0.135540521607962E+01
             -0.821212933286057E+00
              0.449205467913742E-01
             -0.105598930258544E+00
              0.264671862313604E+01
             -0.442696501788411E+00
             -0.213208374898145E+01
              0.618008065328679E+00
             -0.330143072682251E+01
              0.262282295383838E+00
             -0.788415865680283E+00
             -0.354099632801206E+00
             -0.524499350873409E+00
             -0.121210893048372E+01
              0.732914364610511E+00
             -0.743710675312847E+00
             -0.297980757767014E+00
             -0.152757881356990E+01
             -0.802993488245338E-01
             -0.111703747751218E+01
             -0.156672399950847E+01
             -0.211201756887465E+01
              0.152697512785680E+00
             -0.766566050618655E+00
              0.235358574635221E+00
             -0.278457056939873E+00
             -0.168965906339117E+01
             -0.131072846818380E+01
             -0.115492813353785E+01
             -0.120171482113841E+01
              0.105212367559631E+01
              0.107165306533608E+00
             -0.101423247358094E+01
             -0.513352913923946E+00
             -0.571132615595514E+00
              0.854782508799871E+00
             -0.617963048596006E+00
             -0.718923786739714E-01
             -0.657240942914377E+00
             -0.806374563179903E+00
             -0.855890626671615E+00
              0.824167053746305E+00
             -0.247249860991646E+00
             -0.187228236854861E+01
              0.157264941228780E+01
              0.910689019748255E+00
              0.511105609526901E-01
             -0.166573573044141E+01
             -0.151117103120454E+01
              0.921244014476041E-01
              0.490327767318632E-02
             -0.694688899764241E+00
             -0.881263029998704E+00
              0.594837593405842E+00
             -0.949940385312598E-01
              0.550603934858506E+00
              0.963393696953128E+00
              0.711356499566808E+00
              0.486942307370764E+00
              0.434103675224913E+00
             -0.455593423704332E+00
             -0.318423811003540E+00
             -0.376070119925123E+00
             -0.786165672924291E+00
             -0.951338631824807E+00
             -0.121817178425180E+01
             -0.719595016733436E+00
             -0.264593694672548E+00
             -0.148618401536064E+01
             -0.376199054925769E+00
              0.736768129325203E+00
             -0.175173742819140E+01
              0.765430552495084E+00
              0.614192304335931E+00
             -0.147956500202083E+01
             -0.112770693497152E+01
             -0.479869976166892E+00
              0.234734755262013E+00
             -0.840747130825374E+00
              0.154176584573790E+01
              0.136247848204868E+01
             -0.157063550603564E+01
              0.820822606644814E+00
              0.735492494496429E+00
              0.202051085109732E+00
              0.368406420150067E+00
             -0.865556388704965E+00
             -0.320859513430756E+00
              0.143264666132302E+00
              0.423794148398529E+00
              0.828919461924839E+00
             -0.109999102616466E+01
             -0.239132158231170E+00
              0.318351253102668E+00
              0.229080038825452E+00
             -0.714622074005875E+00
              0.373323930107190E+00
             -0.500377480867508E+00
             -0.357890298035742E+00
             -0.304046238074278E-01
             -0.125681419143996E+01
             -0.106952093620152E-01
             -0.144827068899909E+00
             -0.323012519725441E+00
              0.351565272330886E+00
             -0.106206180775733E+01
              0.119963193393238E+01
             -0.424859341692034E+00
             -0.274990127828143E+01
             -0.174833514199936E+01
              0.696545951077820E+00
             -0.873367854837609E+00
             -0.450687761986115E+00
             -0.463024162509469E+00
             -0.397010532011297E+00
             -0.211607294743339E+01
              0.235519753538682E-02
             -0.125690593408556E+01
             -0.693373097409744E+00
              0.391503086016188E+00
              0.162697845477433E+01
              0.105754363459274E+00
              0.677951265697545E-01
              0.123021789728499E+01
             -0.120099342873959E+01
              0.550960745823759E+00
              0.114622002453656E+00
             -0.109882907750307E+01
             -0.651652728749098E+00
              0.386078453328235E+00
              0.675841825566590E-01
              0.354082615370332E+00
              0.283153889006089E+00
             -0.480282544343007E+00
             -0.687715416643762E+00
             -0.101147066890056E+01
              0.101703867381782E+01
             -0.139468411409085E+01
             -0.102626601592225E+01
              0.302653231532848E+00
             -0.170278536208549E+01
              0.486448301096129E+00
              0.122196156717653E+01
             -0.250394924055600E+00
              0.432037895575218E+00
             -0.706346288562122E+00
             -0.460657704311329E+00
              0.223383858051580E+00
              0.732649189270941E+00
             -0.738346070790043E+00
              0.440039182871862E+00
             -0.292093132736656E+00
              0.181557782180716E+00
              0.356783111533949E+00
              0.170871110264612E+00
             -0.265015236244921E+00
             -0.147713576264383E-01
              0.223365873191298E+00
              0.566430457593990E+00
             -0.143739176253293E+01
             -0.572491194167029E-01
              0.107308198767856E+01
             -0.177329775783902E+01
              0.669448773866938E+00
             -0.230026745538699E+01
             -0.241598411803896E+00
             -0.286494105710146E+00
             -0.360843499380010E-01
             -0.267403625730106E+00
             -0.567031915472989E+00
             -0.235589334118846E+00
              0.244152248647578E+00
             -0.523190061445175E+00
              0.213596788453083E+00
              0.185220560325349E+01
             -0.114271765445133E+01
             -0.511554382414164E+00
              0.866372915455528E+00
              0.416449446272046E+00
              0.871566322864104E+00
              0.424501278601721E+00
              0.311692032216583E+00
             -0.284506051473103E+00
             -0.100622253484673E+01
             -0.915041324329540E+00
             -0.742973871937933E+00
              0.134894458477437E+00
             -0.864021384246598E+00
             -0.231407658726898E+00
              0.122360262498058E+00
              0.505031910756406E+00
             -0.131973430716072E+00
              0.120606982947879E+01
             -0.136880702859917E+01
             -0.832282785088889E-02
             -0.160158336280222E+00
              0.648857011288190E+00
             -0.863328065744651E+00
             -0.569431933132555E+00
              0.239338891838828E+00
              0.904527909831043E+00
              0.155219501534108E+01
              0.596931161158675E+00
              0.946468236469850E+00
             -0.493406083300799E+00
              0.127885213576020E+01
              0.128310024499192E+01
             -0.124516111383901E-01
              0.601641080678927E+00
              0.764969108489546E+00
             -0.418458960928024E+00
              0.319488880653612E+00
              0.134147637540612E+01
             -0.413020625296522E+00
             -0.115887140765739E+00
             -0.126843211068368E+01
              0.441939198599433E+00
             -0.321243318304118E+00
              0.447145170084626E+00
              0.141198552907689E-01
             -0.792700249993978E+00
              0.921092612152533E+00
              0.797875219600573E+00
             -0.655276728236813E+00
              0.351148314585605E+00
             -0.122046889525699E+01
             -0.111114503335069E+01
              0.511964152998438E+00
             -0.138799288878777E+01
             -0.720239501321441E+00
             -0.807596502383490E-04
              0.175341265293205E+01
             -0.462714355920498E+00
             -0.220570977310969E+00
             -0.431538422518268E+00
              0.226394440102439E+01
              0.381546591548761E+00
             -0.865157156293646E+00
              0.144626632948203E+01
              0.126534325781820E+01
              0.673442522223496E+00
              0.163540860813118E+01
              0.179404279052969E+01
             -0.528959855164721E-01
             -0.585203971029945E+00
             -0.489812530399549E+00
              0.567162031587986E+00
              0.797217997621815E+00
             -0.152787590203626E+00
             -0.496570158927700E+00
             -0.115304070322063E+01
             -0.401995775987705E+00
             -0.948846047897256E+00
              0.698568042012655E+00
              0.362093970337066E+00
              0.122830195988509E+01
              0.287639188525805E+00
             -0.459237213623419E+00
             -0.182763746316756E+00
              0.807498781830528E+00
              0.201854558831036E+00
              0.126984077038173E+01
              0.111670867088173E+01
             -0.161721109454627E+00
             -0.185710842760118E+00
             -0.208432234736672E+01
              0.994067045808605E+00
              0.132427540830857E-01
              0.117766714991026E+01
             -0.534329669289892E+00
             -0.136233636003691E+01
              0.393740453296049E+00
              0.149287212957238E+01
             -0.517947646771383E+00
              0.133817553626545E+01
             -0.145805449888769E+01
             -0.535682297584104E+00
             -0.175713991783386E+01
              0.315487980770572E+00
              0.757210130768273E-01
              0.194946452659345E+00
             -0.126965880723759E+01
              0.190651307779379E+01
              0.109812145086375E+01
              0.116508686958316E+00
             -0.113567374681828E+01
              0.408394400136733E+00
             -0.349250315051190E+00
             -0.316374640013203E+00
             -0.571569428173545E+00
              0.329978879926000E+00
             -0.365877295764767E+00
             -0.370479361416068E+00
              0.488486896970269E+00
              0.472002673718209E+00
             -0.183594976850753E+01
              0.399287957461110E+00
              0.134244481937699E+01
              0.859691911039402E+00
             -0.261918902972669E+00
             -0.546522323777503E-01
             -0.748025425208397E+00
              0.112916792626877E+01
              0.166790646685101E+00
             -0.468127731098980E-01
             -0.120842694405466E+00
              0.221082309335265E+01
             -0.170772550445142E+00
              0.435462364572818E+00
              0.152267671674332E+01
              0.194898362304876E+01
              0.120729424442209E+01
              0.784747510003506E+00
             -0.130877590523170E+01
             -0.948695188149264E+00
              0.743438163096179E+00
              0.115019867058848E+00
              0.622751584791941E+00
              0.241892394024476E+00
              0.132774567823851E+01
             -0.161785984411555E+01
             -0.993789200878211E+00
             -0.244252361276257E+00
             -0.177617724626492E+01
              0.397326177081732E+00
              0.962293058032709E+00
             -0.203181218284438E-01
             -0.409262699953725E+00
              0.413252802844143E+00
              0.271777810181787E+01
              0.666221283539286E+00
              0.366726265022594E+00
             -0.954500492163635E+00
             -0.115813123382348E+01
             -0.261264652248412E+00
              0.581137069635574E+00
             -0.121800643924624E+00
              0.545815635427544E+00
              0.718688934904289E+00
             -0.123804974020578E+01
              0.557241844654268E+00
              0.635161696498892E+00
              0.113927704470564E+01
             -0.213721697464515E+00
              0.125962151864790E+00
             -0.141028364240816E+00
             -0.893420343280109E+00
             -0.149429551575682E+01
              0.152764854911844E+01
             -0.215609878453022E+00
             -0.105905853037782E+01
              0.183290494222928E+00
             -0.634328585744558E+00
              0.171994732790824E+01
             -0.463932360652937E+00
             -0.772526783196880E+00
              0.763754770112743E+00
             -0.323419065792952E+00
              0.956758736964489E+00
              0.665957036524327E-01
              0.185499953207575E+01
              0.107664080818347E+01
              0.280244712464382E+00
             -0.811157341037803E+00
              0.593919165814195E+00
             -0.109562086458072E+01
             -0.748597197068950E-01
              0.131313272037146E+01
             -0.509697198232044E+00
             -0.873735881351338E+00
             -0.470185175336517E+00
              0.103716217546514E+01
              0.230057286116721E+00
             -0.163966870645357E+01
              0.703817961003069E+00
              0.104542556200562E+00
              0.237532312512764E+00
             -0.980918694479136E+00
              0.221746012004520E+00
              0.694738871463787E+00
              0.913193491753439E+00
              0.132939372247605E+01
              0.732089628650618E+00
              0.161450279067493E+00
             -0.113770088405035E+01
             -0.838109018762775E+00
             -0.128170344030599E+01
             -0.311809343353659E+00
              0.698932813248812E+00
             -0.370296774699019E-03
              0.104139512408786E+01
             -0.650074854135580E+00
              0.342673466803209E+00
             -0.496961139392224E+00
             -0.544529056690155E+00
              0.119792510139413E+01
              0.103255932299689E+00
              0.127140554314698E+01
              0.114628139574313E+00
              0.381213514222458E+00
             -0.318492239058839E+00
              0.121429314144790E+01
             -0.352358398099311E+00
              0.340379966394072E-02
             -0.157897379452278E+01
             -0.134052830875704E+00
              0.140056740959002E+01
              0.128857632094485E+01
              0.512135838555415E+00
             -0.326307279891805E+00
              0.115894362640487E+00
             -0.494749437264251E+00
             -0.436465719619435E+00
              0.182262131225212E+01
              0.169242487285622E+00
             -0.605839406836031E+00
             -0.213726923919608E+01
             -0.830404922646019E+00
             -0.770609129265845E+00
             -0.122020017671073E+01
             -0.121530867373251E+01
             -0.143109079329683E+01
             -0.908806343724201E+00
             -0.530464791005954E+00
             -0.979798407687251E+00
              0.887942315281147E+00
             -0.326103399747288E+00
             -0.166111131740255E+01
              0.838329030155697E+00
             -0.695503697008400E+00
             -0.160160727991686E+01
              0.204732674507906E+01
             -0.526907226301318E+00
              0.284721282503805E+00
              0.750142181534224E+00
              0.312396726404925E+00
              0.536377767138423E+00
              0.227351001353946E-01
              0.296068665020393E-01
             -0.263373906569362E+00
             -0.150187707074171E+01
              0.218869667806374E+00
             -0.240168080557518E+01
              0.149478883046427E+01
             -0.808693376706084E+00
             -0.391458841732432E+00
             -0.429437082270960E+00
              0.478065293129696E+00
             -0.306977842060170E+00
              0.562644387433242E+00
             -0.119618613469974E+01
              0.725641751325564E+00
              0.890242353133540E+00
              0.151908172094499E+00
              0.192720624734234E+00
              0.441891155722177E+00
              0.214557813796153E+00
              0.592734998298936E+00
             -0.801109956528956E-01
             -0.155161757779010E+01
              0.196156086063786E+00
             -0.727146182262350E+00
             -0.685298771297278E-01
              0.115650521063357E+01
             -0.160803950941988E+01
              0.528336118125425E-01
              0.788203950659865E-01
              0.192677463700193E+00
              0.610939206776445E+00
             -0.252058644516569E+00
              0.170041507732726E+01
              0.713047664793270E+00
             -0.281705094576649E+00
             -0.165310750775856E+00
              0.141284140059319E+00
              0.158721758926364E+01
             -0.974720370503480E+00
             -0.203799606727810E+01
              0.592587800728200E+00
             -0.157221265284929E+00
             -0.331448165663404E+00
              0.398560939132235E+00
              0.151939700506845E+01
              0.830053643673627E+00
             -0.342694845041328E+00
             -0.110791355827298E+01
             -0.274209305168122E+00
              0.548310703690445E+00
             -0.379907369931520E+00
             -0.154621163601482E+01
             -0.209830946468895E+00
             -0.200223102538011E+01
             -0.105900178150862E+01
              0.178956677700201E+01
             -0.107138302860764E+01
             -0.146686921948565E+01
             -0.107754979160702E+01
             -0.822998493401427E+00
              0.702263675694444E+00
              0.173804109754958E+01
             -0.217130489952039E+00
              0.533558833063450E+00
             -0.427203537307905E+00
             -0.138017590563542E+01
              0.105562382829968E+01
             -0.994927987753806E+00
              0.485199564114918E+00
              0.554329193591447E+00
             -0.340691957035150E+00
              0.735279302900713E+00
              0.767002329769530E+00
              0.249867877174707E+01
             -0.189267723562969E+00
             -0.118326133298464E+01
             -0.135473749384522E+01
             -0.405964480789262E+00
             -0.896184929206140E+00
              0.185721977902847E+01
             -0.918710507607575E+00
              0.209508439745648E+00
              0.284209645515743E-01
             -0.375841992370997E+00
             -0.176884096373058E+01
             -0.134042516826693E+00
              0.204602669739213E+01
              0.480358547473064E+00
              0.149082314116667E+00
             -0.122089585107838E+01
             -0.109165762015676E+01
             -0.395880440540044E+00
              0.905398359811667E+00
             -0.554969321120543E+00
              0.202628447982319E+01
             -0.989276614144166E+00
              0.402420890991688E+00
             -0.237255674780689E+00
             -0.123112137300153E+01
              0.148384591234796E+00
             -0.115952635176271E+01
             -0.149827784896996E+01
              0.242817154747014E+00
              0.251299705571220E-01
              0.996072127314095E+00
              0.567690550551879E+00
             -0.718459311107295E+00
              0.438299013930077E+00
             -0.182738956987246E+01
             -0.940874688029799E+00
              0.189112291395327E+01
              0.416214981048739E-01
             -0.741846607643026E-01
             -0.481255462037984E+00
             -0.807065396508477E-02
             -0.262266220533041E+00
              0.189759097821726E+01
              0.840553573702675E+00
             -0.151769830156226E+00
              0.332709378984379E-01
             -0.763703082589750E+00
             -0.233092175870409E+00
             -0.124257728044959E+01
              0.106546766339056E+01
              0.137440077027063E+00
              0.138959101563783E+00
              0.396802001865376E+00
             -0.308186173104593E+00
             -0.478952465292222E+00
              0.215628200357619E+00
             -0.229365598300409E+01
             -0.188747583416888E+00
             -0.205249932634695E+00
             -0.117658848826312E+00
              0.959602423252028E+00
              0.132587816193915E+01
              0.369616710865648E+00
             -0.188827137524946E+01
              0.129139403577861E+01
             -0.494862250619994E+00
             -0.751072064304214E+00
             -0.177832772875373E+01
             -0.523966403590944E+00
              0.130701612558639E+01
              0.704925776648727E+00
              0.355297677731798E+00
              0.731734579552999E+00
             -0.113670010037901E+01
             -0.101532382782326E+01
              0.129402873731954E+01
              0.850755451507315E+00
              0.939210216623213E+00
              0.206493275538578E+00
              0.224573259715591E+00
              0.106985920982351E+01
              0.200847957257218E+01
             -0.332021145489004E+00
              0.837273685505693E+00
             -0.649499894304086E+00
             -0.899903578285815E+00
             -0.714351216173446E+00
             -0.699718551951453E+00
             -0.288276145367258E+00
             -0.955348942013891E+00
             -0.374880156282422E+00
             -0.260437272789346E+01
              0.630778668585498E+00
              0.596484492893800E+00
             -0.701290496688480E-01
             -0.744279821942477E+00
             -0.360500646114403E+00
             -0.115864638978282E+01
              0.999037633037609E-01
              0.160456968825788E+01
             -0.374435711125114E+00
             -0.390268789235881E+00
              0.379860341401093E+00
             -0.104341219491808E+01
              0.173793318612345E+01
              0.312077886391507E+00
              0.942342080233747E-01
              0.105751412857243E+01
             -0.148708290812687E+00
              0.120578928262721E+01
              0.424137526257870E+00
             -0.124851041563687E-01
              0.282271652430166E+00
             -0.233372380452955E+00
              0.134779694125014E+01
              0.142182620554824E+00
              0.455411434446355E+00
             -0.182086267899778E+00
              0.215389201570768E+00
             -0.191897282999734E+01
             -0.715969062373974E+00
             -0.102139375634064E+01
              0.101374770632905E+01
             -0.737336301347784E+00
             -0.110670839386689E+01
              0.122388647375416E+01
             -0.283607885093298E+00
              0.831178416781146E+00
             -0.180896168878119E+01
              0.339307043703781E+00
              0.666559874316048E-01
              0.139954191277067E+00
             -0.290714775508143E+00
             -0.130062243505611E+00
              0.102715757125779E+01
              0.603955386051700E-01
             -0.109265777569369E+01
             -0.454948353232891E+00
              0.354455160408989E+00
             -0.234241174820862E+01
             -0.174969232072268E+01
              0.105537132184024E-01
              0.346719764820415E+00
             -0.106460264155158E+01
              0.329720269095333E-01
              0.207262338461372E+01
              0.576359295746290E+00
             -0.108882820874335E+01
              0.154429943203714E+00
             -0.217148471326144E+00
              0.276373272833597E+00
             -0.739069054055967E+00
              0.484091966803950E+00
              0.467602624648039E+00
             -0.185806698882089E+00
              0.230149771784581E+01
             -0.593833627128837E-01
             -0.624895213622267E+00
              0.672906374011310E+00
              0.869838852829977E+00
             -0.643134731820671E+00
             -0.115077067633548E-01
              0.200445343715808E+01
             -0.239380963066971E-01
              0.104637550789178E+01
              0.341778285116523E+00
             -0.127772437735457E+00
             -0.281326441722902E+00
              0.946398597633565E+00
             -0.122362260959518E+01
             -0.370203069529893E-01
             -0.421830754209384E+00
             -0.813233125374780E+00
              0.217071152391989E+00
              0.517965212421507E+00
             -0.623608021954727E-01
             -0.350889175166245E-01
             -0.854638681154896E+00
              0.287933601556299E+00
             -0.205603574531619E-01
             -0.432253583869863E+00
             -0.404483874270375E+00
              0.325181726634178E+00
              0.419626470758949E-02
             -0.797414633575671E+00
             -0.219760468710328E+01
              0.133432443239169E+00
              0.276805847359913E+00
             -0.101433725501483E+01
             -0.524101946896492E+00
              0.167943327597500E+01
              0.284860761994875E+00
              0.932822379237299E+00
              0.242441658144988E+00
              0.832057606031503E+00
              0.417140640618072E-01
             -0.810399235881166E+00
             -0.283074780056833E+00
              0.962756282129202E-01
              0.652917939396389E+00
              0.149806138882784E+01
              0.100246057669258E+01
              0.705161631053874E-01
              0.226375134312910E+00
              0.123594584691704E+01
              0.585261819142067E+00
             -0.139355034841353E+01
             -0.568340548915603E+00
              0.211386695544713E+00
              0.214959072275514E+00
              0.509770884032470E+00
             -0.103396491410921E+01
              0.774086941921865E-01
              0.859726230131396E+00
              0.986777934305098E+00
             -0.854778707430973E+00
              0.906126830660172E-01
             -0.533930871928527E-01
             -0.446835310587945E+00
             -0.482455746703367E+00
             -0.209393012907659E+00
             -0.290584652027478E+00
              0.242749960957861E+00
              0.858139242673162E+00
             -0.665715251548463E+00
              0.165177165135209E+01
              0.677462156569180E+00
              0.549091750770729E+00
              0.773012513433163E+00
              0.477856288283031E+00
              0.733059551502846E+00
              0.113353635275021E+01
             -0.973412010718484E+00
              0.128191526973478E+01
             -0.233061493699207E+01
              0.642465020137501E+00
             -0.213495609899507E+01
              0.163070103143768E+01
              0.161541349694354E+01
             -0.161019144934746E+00
             -0.946915591337945E+00
             -0.880929089838041E+00
             -0.107380262802890E+01
             -0.134668877863488E+01
              0.111363226962899E+01
              0.874542339411323E+00
              0.496155820100951E+00
              0.490234437457627E+00
              0.936772161217471E+00
             -0.842234206459016E+00
             -0.282200042391084E+00
              0.107280023930756E+01
             -0.250208696270800E+00
              0.100610560818527E+01
              0.159824123618111E+01
             -0.757210420018123E-01
             -0.155193363507824E+01
              0.136974715690117E+00
              0.316153697718663E-01
             -0.216638289413570E+00
              0.706045760715766E-01
             -0.131168215688058E+01
             -0.131128696265141E+00
              0.301817718970916E+00
              0.314329427887344E+00
              0.102838600129010E+01
             -0.869107206818874E+00
              0.100914994810370E+01
             -0.771513663651622E+00
              0.576679615925262E+00
              0.907060243830758E+00
 
 BEEF-vdW xc energy contributions
           1 :   -14.1082496642018     
           2 :    11.4869802909414     
           3 :   -7.71900587406951     
           4 :    4.20474967349521     
           5 :   -1.61887545167596     
           6 :   8.516299554220907E-002
           7 :   0.569440806360266     
           8 :  -0.668262776565902     
           9 :   0.546458800971033     
          10 :  -0.446396665567258     
          11 :   0.451409610564584     
          12 :  -0.514599389708701     
          13 :   0.545147795267917     
          14 :  -0.488631281111628     
          15 :   0.344680538690577     
          16 :  -0.157435848330980     
          17 :  -1.163387811962124E-002
          18 :   0.112351186432711     
          19 :  -0.131793641361160     
          20 :   9.477505507075001E-002
          21 :  -4.590937110076254E-002
          22 :   1.906666281120906E-002
          23 :  -2.083652884800458E-002
          24 :   3.208176094870296E-002
          25 :  -2.738624160527792E-002
          26 :  -6.517377879148967E-003
          27 :   5.963384210384071E-002
          28 :  -0.106653322087961     
          29 :   0.127195758155500     
          30 :  -0.119502969461802     
          31 :   -1.94556340619524     
          32 :   -1.19744171271639     

     Writing output data file ./pwscf.save/
 
     init_run     :     68.33s CPU     71.05s WALL (       1 calls)
     electrons    :    556.12s CPU    605.88s WALL (       1 calls)
     forces       :     28.70s CPU     31.11s WALL (       1 calls)

     Called by init_run:
     wfcinit      :      2.22s CPU      2.30s WALL (       1 calls)
     potinit      :     56.79s CPU     58.82s WALL (       1 calls)
     hinit0       :      7.58s CPU      7.70s WALL (       1 calls)

     Called by electrons:
     c_bands      :     79.86s CPU     80.96s WALL (      16 calls)
     sum_band     :     41.72s CPU     48.54s WALL (      16 calls)
     v_of_rho     :    342.40s CPU    373.86s WALL (      17 calls)
     newd         :     17.35s CPU     24.40s WALL (      17 calls)
     PAW_pot      :      2.24s CPU      2.24s WALL (      17 calls)
     mix_rho      :    123.38s CPU    128.99s WALL (      16 calls)
     vdW_kernel   :     33.61s CPU     33.61s WALL (       1 calls)

     Called by c_bands:
     init_us_2    :      1.68s CPU      1.71s WALL (      33 calls)
     regterg      :     76.28s CPU     77.37s WALL (      16 calls)

     Called by *egterg:
     rdiaghg      :      0.02s CPU      0.02s WALL (      81 calls)
     h_psi        :     68.13s CPU     68.16s WALL (      82 calls)
     s_psi        :      2.25s CPU      2.25s WALL (      82 calls)
     g_psi        :      0.25s CPU      0.25s WALL (      65 calls)

     Called by h_psi:
     h_psi:calbec :      1.57s CPU      1.57s WALL (      82 calls)
     vloc_psi     :     63.85s CPU     63.86s WALL (      82 calls)
     add_vuspsi   :      2.27s CPU      2.27s WALL (      82 calls)

     General routines
     calbec       :      2.06s CPU      2.06s WALL (     102 calls)
     fft          :    280.92s CPU    280.94s WALL (    2932 calls)
     ffts         :     49.55s CPU     49.56s WALL (     537 calls)
     fftw         :     61.27s CPU     61.27s WALL (     660 calls)
 
     Parallel routines
 
     PWSCF        :  20m11.21s CPU  22m 7.54s WALL

 
   This run was terminated on:  23:15:32   3Jan2023            

=------------------------------------------------------------------------------=
   JOB DONE.
=------------------------------------------------------------------------------=
