
     Program PWSCF v.6.7MaX starts on  4Jan2023 at  9:36:59 

     This program is part of the open-source Quantum ESPRESSO suite
     for quantum simulation of materials; please cite
         "P. Giannozzi et al., J. Phys.:Condens. Matter 21 395502 (2009);
         "P. Giannozzi et al., J. Phys.:Condens. Matter 29 465901 (2017);
          URL http://www.quantum-espresso.org", 
     in publications or presentations arising from this work. More details at
     http://www.quantum-espresso.org/quote

     Parallel version (MPI), running on     1 processors

     MPI processes distributed on     1 nodes
     Reading input from cchc-gas-ensemble.in
Warning: card &CELL ignored
Warning: card / ignored

     Current dimensions of program PWSCF are:
     Max number of different atomic species (ntypx) = 10
     Max number of k-points (npk) =  40000
     Max angular momentum in pseudopotentials (lmaxx) =  3
     file C.pbe-n-kjpaw_psl.1.0.0.UPF: wavefunction(s)  2S 2P renormalized
     file H.pbe-kjpaw_psl.1.0.0.UPF: wavefunction(s)  1S renormalized

     **************************************************************************
     Initializing libbeef V0.1.2 with the BEEF-vdW functional.
     Citation: Wellendorff et al., PRB 85, 235149 (2012).
     **************************************************************************


     IMPORTANT: XC functional enforced from input :
     Exchange-correlation= BEEF-VDW
                           (   1   4  43  14   2   0   0)
     Any further DFT definition will be discarded
     Please, verify this is what you really want


     gamma-point specific algorithms are used

     Subspace diagonalization in iterative solution of the eigenvalue problem:
     a serial algorithm will be used

 
     G-vector sticks info
     --------------------
     sticks:   dense  smooth     PW     G-vecs:    dense   smooth      PW
     Sum       29893   29893   7467              4137419  4137419  517173
 


     bravais-lattice index     =            0
     lattice parameter (alat)  =      39.1004  a.u.
     unit-cell volume          =   65898.1907 (a.u.)^3
     number of atoms/cell      =            4
     number of atomic types    =            2
     number of electrons       =        13.00
     number of Kohn-Sham states=           11
     kinetic-energy cutoff     =      60.0000  Ry
     charge density cutoff     =     240.0000  Ry
     scf convergence threshold =      1.0E-06
     mixing beta               =       0.7000
     number of iterations used =            8  local-TF  mixing
     Exchange-correlation= BEEF-VDW
                           (   1   4  43  14   2   0   0)

     celldm(1)=  39.100375  celldm(2)=   0.000000  celldm(3)=   0.000000
     celldm(4)=   0.000000  celldm(5)=   0.000000  celldm(6)=   0.000000

     crystal axes: (cart. coord. in units of alat)
               a(1) = (   1.000000   0.000000   0.000000 )  
               a(2) = (   0.000000   1.023952   0.000000 )  
               a(3) = (   0.000000   0.000000   1.076592 )  

     reciprocal axes: (cart. coord. in units 2 pi/alat)
               b(1) = (  1.000000  0.000000  0.000000 )  
               b(2) = (  0.000000  0.976608  0.000000 )  
               b(3) = (  0.000000  0.000000  0.928857 )  


     PseudoPot. # 1 for C  read from file:
     /users/bkreitz1/quantum-espresso/potentials/C.pbe-n-kjpaw_psl.1.0.0.UPF
     MD5 check sum: a169b0ebad56f5ec0d79c4633f80bf22
     Pseudo is Projector augmented-wave + core cor, Zval =  4.0
     Generated using 'atomic' code by A. Dal Corso  v.6.7MaX
     Shape of augmentation charge: PSQ
     Using radial grid of 1073 points,  4 beta functions with: 
                l(1) =   0
                l(2) =   0
                l(3) =   1
                l(4) =   1
     Q(r) pseudized with 0 coefficients 


     PseudoPot. # 2 for H  read from file:
     /users/bkreitz1/quantum-espresso/potentials/H.pbe-kjpaw_psl.1.0.0.UPF
     MD5 check sum: ae98473e6dc62675f0d0baffdab24f65
     Pseudo is Projector augmented-wave, Zval =  1.0
     Generated using 'atomic' code by A. Dal Corso  v.6.7MaX
     Shape of augmentation charge: PSQ
     Using radial grid of  929 points,  2 beta functions with: 
                l(1) =   0
                l(2) =   0
     Q(r) pseudized with 0 coefficients 


     atomic species   valence    mass     pseudopotential
        C              4.00    12.01100     C ( 1.00)
        H              1.00     1.00800     H ( 1.00)

     No symmetry found



   Cartesian axes

     site n.     atom                  positions (alat units)
         1           C   tau(   1) = (   0.4855206   0.4819881   0.4842558  )
         2           C   tau(   2) = (   0.5054936   0.5099110   0.5412938  )
         3           C   tau(   3) = (   0.5141061   0.5419025   0.4835464  )
         4           H   tau(   4) = (   0.5105303   0.5080828   0.5937388  )

     number of k points=     1  Gaussian smearing, width (Ry)=  0.0050
                       cart. coord. in units 2pi/alat
        k(    1) = (   0.0000000   0.0000000   0.0000000), wk =   2.0000000

     Dense  grid:  2068710 G-vectors     FFT dimensions: ( 200, 200, 216)

     Estimated max dynamical RAM per process >       3.18 GB

     Check: negative core charge=   -0.000001

     Initial potential from superposition of free atoms

     starting charge   12.99987, renormalised to   13.00000

     negative rho (up, down):  8.782E-03 0.000E+00


     %%%%%%%%%%%%%%%%%%%%%%%%%%%%%%%%%%%%%%%%%%%%%%%%%%%%%%%%%%%%%%%%%%%%%%%%
     %                                                                      %
     % You are using vdW-DF, which was implemented by the Thonhauser group. %
     % Please cite the following two papers that made this development      %
     % possible and the two reviews that describe the various versions:     %
     %                                                                      %
     %   T. Thonhauser et al., PRL 115, 136402 (2015).                      %
     %   T. Thonhauser et al., PRB 76, 125112 (2007).                       %
     %   K. Berland et al., Rep. Prog. Phys. 78, 066501 (2015).             %
     %   D.C. Langreth et al., J. Phys.: Condens. Matter 21, 084203 (2009). %
     %                                                                      %
     %                                                                      %
     % If you are calculating the stress with vdW-DF, please also cite:     %
     %                                                                      %
     %   R. Sabatini et al., J. Phys.: Condens. Matter 24, 424209 (2012).   %
     %                                                                      %
     %%%%%%%%%%%%%%%%%%%%%%%%%%%%%%%%%%%%%%%%%%%%%%%%%%%%%%%%%%%%%%%%%%%%%%%%


     Starting wfcs are   13 randomized atomic wfcs
     Checking if some PAW data can be deallocated... 

     total cpu time spent up to now is       65.2 secs

     Self-consistent Calculation

     iteration #  1     ecut=    60.00 Ry     beta= 0.70
     Davidson diagonalization with overlap
     ethr =  1.00E-02,  avg # of iterations =  3.0

     negative rho (up, down):  7.426E-03 0.000E+00

     total cpu time spent up to now is       97.4 secs

     total energy              =     -57.72363674 Ry
     estimated scf accuracy    <       0.43084709 Ry

     iteration #  2     ecut=    60.00 Ry     beta= 0.70
     Davidson diagonalization with overlap
     ethr =  3.31E-03,  avg # of iterations =  1.0

     negative rho (up, down):  5.203E-03 0.000E+00

     total cpu time spent up to now is      128.4 secs

     total energy              =     -57.66195926 Ry
     estimated scf accuracy    <       0.12963382 Ry

     iteration #  3     ecut=    60.00 Ry     beta= 0.70
     Davidson diagonalization with overlap
     ethr =  9.97E-04,  avg # of iterations =  8.0

     negative rho (up, down):  4.321E-03 0.000E+00

     total cpu time spent up to now is      162.5 secs

     total energy              =     -57.68616305 Ry
     estimated scf accuracy    <       0.01444182 Ry

     iteration #  4     ecut=    60.00 Ry     beta= 0.70
     Davidson diagonalization with overlap
     ethr =  1.11E-04,  avg # of iterations =  4.0

     negative rho (up, down):  2.937E-02 0.000E+00

     total cpu time spent up to now is      194.9 secs

     total energy              =     -57.68474874 Ry
     estimated scf accuracy    <       0.00789422 Ry

     iteration #  5     ecut=    60.00 Ry     beta= 0.70
     Davidson diagonalization with overlap
     ethr =  6.07E-05,  avg # of iterations =  6.0

     negative rho (up, down):  4.250E-02 0.000E+00

     total cpu time spent up to now is      228.3 secs

     total energy              =     -57.68465515 Ry
     estimated scf accuracy    <       0.00334312 Ry

     iteration #  6     ecut=    60.00 Ry     beta= 0.70
     Davidson diagonalization with overlap
     ethr =  2.57E-05,  avg # of iterations =  4.0

     negative rho (up, down):  7.382E-02 0.000E+00

     total cpu time spent up to now is      261.4 secs

     total energy              =     -57.68538351 Ry
     estimated scf accuracy    <       0.00135882 Ry

     iteration #  7     ecut=    60.00 Ry     beta= 0.70
     Davidson diagonalization with overlap
     ethr =  1.05E-05,  avg # of iterations =  7.0

     negative rho (up, down):  7.197E-02 0.000E+00

     total cpu time spent up to now is      295.7 secs

     total energy              =     -57.68535927 Ry
     estimated scf accuracy    <       0.00056927 Ry

     iteration #  8     ecut=    60.00 Ry     beta= 0.70
     Davidson diagonalization with overlap
     ethr =  4.38E-06,  avg # of iterations =  2.0

     negative rho (up, down):  5.742E-02 0.000E+00

     total cpu time spent up to now is      327.8 secs

     total energy              =     -57.68482114 Ry
     estimated scf accuracy    <       0.00038012 Ry

     iteration #  9     ecut=    60.00 Ry     beta= 0.70
     Davidson diagonalization with overlap
     ethr =  2.92E-06,  avg # of iterations = 10.0

     negative rho (up, down):  4.342E-02 0.000E+00

     total cpu time spent up to now is      361.9 secs

     total energy              =     -57.68461139 Ry
     estimated scf accuracy    <       0.00012239 Ry

     iteration # 10     ecut=    60.00 Ry     beta= 0.70
     Davidson diagonalization with overlap
     ethr =  9.41E-07,  avg # of iterations =  5.0

     negative rho (up, down):  3.069E-02 0.000E+00

     total cpu time spent up to now is      394.5 secs

     total energy              =     -57.68452293 Ry
     estimated scf accuracy    <       0.00008420 Ry

     iteration # 11     ecut=    60.00 Ry     beta= 0.70
     Davidson diagonalization with overlap
     ethr =  6.48E-07,  avg # of iterations =  8.0

     negative rho (up, down):  2.196E-02 0.000E+00

     total cpu time spent up to now is      427.3 secs

     total energy              =     -57.68455251 Ry
     estimated scf accuracy    <       0.00002158 Ry

     iteration # 12     ecut=    60.00 Ry     beta= 0.70
     Davidson diagonalization with overlap
     ethr =  1.66E-07,  avg # of iterations =  2.0

     negative rho (up, down):  1.882E-02 0.000E+00

     total cpu time spent up to now is      458.9 secs

     total energy              =     -57.68456415 Ry
     estimated scf accuracy    <       0.00000842 Ry

     iteration # 13     ecut=    60.00 Ry     beta= 0.70
     Davidson diagonalization with overlap
     ethr =  6.48E-08,  avg # of iterations =  1.0

     negative rho (up, down):  1.633E-02 0.000E+00

     total cpu time spent up to now is      489.6 secs

     total energy              =     -57.68457002 Ry
     estimated scf accuracy    <       0.00000329 Ry

     iteration # 14     ecut=    60.00 Ry     beta= 0.70
     Davidson diagonalization with overlap
     ethr =  2.53E-08,  avg # of iterations =  1.0

     negative rho (up, down):  1.507E-02 0.000E+00

     total cpu time spent up to now is      513.4 secs

     End of self-consistent calculation

          k = 0.0000 0.0000 0.0000 (258587 PWs)   bands (ev):

   -24.2162 -15.6643 -12.5814 -10.7227 -10.3270  -6.9678  -6.0086  -2.7840
    -1.7831  -0.8872  -0.2539

     the Fermi energy is    -6.0086 ev

!    total energy              =     -57.68457161 Ry

     total all-electron energy =      -230.976859 Ry
     estimated scf accuracy    <       0.00000088 Ry
     smearing contrib. (-TS)   =      -0.00282095 Ry
     internal energy E=F+TS    =     -57.68175066 Ry

     The total energy is F=E-TS. E is the sum of the following terms:
     one-electron contribution =    -114.44599791 Ry
     hartree contribution      =      58.61145614 Ry
     xc contribution           =     -14.69538405 Ry
     ewald contribution        =      32.51849294 Ry
     one-center paw contrib.   =     -19.67031778 Ry

     convergence has been achieved in  14 iterations

     negative rho (up, down):  1.507E-02 0.000E+00

     Forces acting on atoms (cartesian axes, Ry/au):

     atom    1 type  1   force =    -0.00186230   -0.00046149   -0.00006725
     atom    2 type  1   force =     0.00046010   -0.00024060    0.01229412
     atom    3 type  1   force =     0.00244576    0.00035750    0.00038207
     atom    4 type  2   force =    -0.00104356    0.00034459   -0.01260894

     Total force =     0.017932     Total SCF correction =     0.000676

     negative rho (up, down):  1.507E-02 0.000E+00

     negative rho (up, down):  1.507E-02 0.000E+00

     negative rho (up, down):  1.507E-02 0.000E+00

     negative rho (up, down):  1.507E-02 0.000E+00

     negative rho (up, down):  1.507E-02 0.000E+00

     negative rho (up, down):  1.507E-02 0.000E+00

     negative rho (up, down):  1.507E-02 0.000E+00

     negative rho (up, down):  1.507E-02 0.000E+00

     negative rho (up, down):  1.507E-02 0.000E+00

     negative rho (up, down):  1.507E-02 0.000E+00

     negative rho (up, down):  1.507E-02 0.000E+00

     negative rho (up, down):  1.507E-02 0.000E+00

     negative rho (up, down):  1.507E-02 0.000E+00

     negative rho (up, down):  1.507E-02 0.000E+00

     negative rho (up, down):  1.507E-02 0.000E+00

     negative rho (up, down):  1.507E-02 0.000E+00

     negative rho (up, down):  1.507E-02 0.000E+00

     negative rho (up, down):  1.507E-02 0.000E+00

     negative rho (up, down):  1.507E-02 0.000E+00

     negative rho (up, down):  1.507E-02 0.000E+00

     negative rho (up, down):  1.507E-02 0.000E+00

     negative rho (up, down):  1.507E-02 0.000E+00

     negative rho (up, down):  1.507E-02 0.000E+00

     negative rho (up, down):  1.507E-02 0.000E+00

     negative rho (up, down):  1.507E-02 0.000E+00

     negative rho (up, down):  1.507E-02 0.000E+00

     negative rho (up, down):  1.507E-02 0.000E+00

     negative rho (up, down):  1.507E-02 0.000E+00

     negative rho (up, down):  1.507E-02 0.000E+00

     negative rho (up, down):  1.507E-02 0.000E+00

     negative rho (up, down):  1.507E-02 0.000E+00

     negative rho (up, down):  1.507E-02 0.000E+00

     negative rho (up, down):  1.507E-02 0.000E+00

     negative rho (up, down):  1.507E-02 0.000E+00
 BEEFens 2000 ensemble energies
             -0.111483123588320E+01
             -0.434596234713696E-01
             -0.219707605696734E+00
              0.762842445212320E+00
             -0.361884188664228E+00
             -0.259162676282193E+00
             -0.818628542402566E+00
             -0.166718335842647E+01
             -0.565584735610529E+00
             -0.623498608390760E+00
             -0.636787750747060E+00
              0.120532268092037E+00
              0.610409983096960E-01
             -0.963241770305170E-01
              0.654632719454273E-01
              0.809102733932985E+00
             -0.325173620024141E+00
             -0.143359747537181E+00
              0.427292856503870E+00
             -0.189335181319676E+01
              0.975090475917233E+00
             -0.329014746775327E+00
             -0.103361321647676E+00
             -0.150034674618569E+00
              0.547581704880695E-01
             -0.657267892818907E-01
              0.149936082709122E+01
             -0.436397809805353E+00
             -0.118101369935010E+00
             -0.974276608141256E+00
              0.115142497448183E+01
             -0.460248599862467E-01
             -0.713059871313892E+00
              0.294725009460706E+00
             -0.539994666732451E-01
              0.518443947136685E+00
              0.401973685764627E-01
             -0.136879200980435E-01
              0.679294412171735E+00
             -0.168646812191894E+01
              0.938618351385418E+00
              0.208487219488371E+00
             -0.235301393938507E+00
             -0.497510565249875E+00
              0.210236031817859E+00
             -0.328340892375387E+00
              0.875815873600972E+00
              0.602458722116671E+00
             -0.309377303882979E+00
             -0.553547093449758E+00
             -0.545146473139072E+00
             -0.644389923439900E+00
              0.403660892505370E+00
             -0.889327237001201E+00
              0.284447334524454E+00
              0.105252843235485E+01
              0.131326893016826E+01
              0.547833576739022E+00
              0.265114505733519E+00
              0.564429002648923E+00
              0.156993393050382E+01
              0.261932903888923E+00
             -0.940107773385353E+00
             -0.152143706281457E+00
             -0.509660255432320E+00
              0.105964771890049E+01
             -0.120689963941632E+01
             -0.102165002557492E+01
             -0.603210442831028E+00
             -0.359368498153160E+00
             -0.640922091276249E+00
              0.478178597976310E+00
              0.229356569341455E+00
              0.278009146554616E+00
             -0.666784022230419E+00
             -0.605803197447234E+00
             -0.102173469678916E+01
              0.525302601827038E+00
             -0.607831625021676E+00
              0.563685023377330E+00
             -0.157110592387577E+00
             -0.470943544914316E+00
             -0.839171209036706E+00
             -0.254791052637058E+00
             -0.288294461949242E+00
             -0.235783983338328E+00
              0.663551153923452E+00
              0.136495728556932E+01
             -0.791907805567035E+00
             -0.135071272469530E+01
             -0.310446061393766E+00
              0.185401261074463E+01
             -0.972741921502503E+00
              0.529973820742837E+00
             -0.203428192644301E+00
             -0.993909778808822E+00
              0.459983929376266E+00
              0.505265468958841E+00
             -0.267665849234743E+00
              0.491783362518261E+00
             -0.418139159853787E+00
             -0.106896998336961E+01
              0.174695161947268E+01
              0.783319728686964E+00
              0.345017617777000E+00
              0.223355954046388E+00
              0.428119110196256E+00
              0.138410816518654E+01
             -0.453164402851683E+00
              0.474988487323729E-01
             -0.235631356906961E+01
              0.279416872746324E+00
             -0.112983459824239E+01
              0.216021523101528E+00
              0.370492307459512E+00
             -0.643478226824866E+00
             -0.850399279810124E+00
              0.382608713562878E-01
             -0.539025724434993E+00
              0.768422410431578E+00
             -0.783549443836108E+00
             -0.160135137285362E+00
             -0.656533474468229E+00
             -0.569509034727913E-01
              0.923208516593856E-01
              0.418157243011525E+00
              0.705193634459533E-03
             -0.958727082006545E-01
              0.115918737027354E+01
              0.158050835836643E+01
              0.859122573732689E+00
              0.108882339686833E+01
             -0.220495462315788E+00
              0.139506113832412E+00
              0.873805921127305E+00
              0.108872481859673E+00
             -0.131054314977521E+01
             -0.768608606888912E+00
             -0.842861299436072E+00
             -0.501067260013363E+00
              0.441684969530170E+00
             -0.209256472693466E+01
             -0.218758950035814E+00
              0.803119003948341E+00
             -0.683516778908681E+00
             -0.499327922291315E+00
              0.101898570915275E+01
              0.838003873427988E+00
             -0.490390876720724E+00
              0.597204360189117E+00
             -0.435226056557594E+00
              0.641246973526344E+00
              0.100019539483069E+00
              0.159767884134892E+00
             -0.139831402989486E+01
             -0.812972340920907E+00
             -0.144715163700903E+00
             -0.697457230434638E-01
             -0.729435740225961E+00
              0.192067192894993E+01
             -0.184013723371013E+00
             -0.461432854174353E+00
              0.648946408301926E+00
             -0.751233158162822E+00
             -0.658448960910683E+00
              0.572317131326892E+00
              0.221097333164934E+00
              0.189489394475736E+00
              0.298805642868455E+00
             -0.183646461823505E+00
              0.159131814134841E+00
              0.988655475516820E+00
             -0.444621277392106E+00
              0.379991156086787E+00
              0.152469631164283E+01
              0.550593263216896E+00
             -0.662332783232884E-01
             -0.370347869356157E+00
              0.267191815894063E+01
             -0.441411921838507E+00
              0.683160260915067E+00
              0.538168705796179E+00
              0.453948037580558E+00
              0.158221893188137E+01
              0.784896753007754E+00
             -0.796138701545470E-01
              0.446506224827776E+00
              0.906084931586941E+00
              0.652008237430038E+00
             -0.105110204398689E+01
              0.162622698090823E+01
             -0.146679440311236E+01
             -0.168120136483013E+00
              0.952505753285972E+00
              0.329621788597345E+00
              0.110638660891476E+00
              0.446068622656040E+00
              0.271398543896590E+00
              0.549094775316420E+00
             -0.107201880252944E+01
              0.603126973850667E-01
             -0.400914738799434E+00
             -0.935677473730687E-01
             -0.709048629222462E-01
             -0.235433726628554E+00
             -0.114517608123380E+00
              0.142007545821473E+01
             -0.863935029296754E-01
             -0.483578108932059E+00
             -0.183301556535076E-01
              0.246545856138044E+00
             -0.110619943855739E+01
             -0.989635512831526E+00
             -0.579806440673365E+00
             -0.108613804396184E+01
             -0.326926133327549E+00
             -0.687159243885157E+00
              0.303164563164516E+00
              0.457985548357596E-01
             -0.221859421974500E+00
             -0.132061878380371E+00
              0.803438889286392E-01
             -0.196384942839614E+00
              0.112934447035960E+01
             -0.151903103277846E+01
             -0.235127200531814E+00
             -0.217132940406803E+00
              0.257388480434387E+00
              0.401345176560501E+00
             -0.883637728348045E+00
             -0.201781766162270E+00
              0.763070285586370E+00
             -0.320664618039911E+00
              0.239112557581478E+00
              0.563414927133073E+00
             -0.194601314859177E-01
              0.196609572558959E+01
             -0.164419396648147E+00
             -0.580409301402090E+00
             -0.684211528441381E-02
             -0.486568451539837E+00
              0.935757370842746E+00
             -0.850498579073250E+00
              0.248013399632965E+00
              0.834664958139725E+00
             -0.208057228678824E+00
              0.202808800717047E+01
              0.218916718398338E+01
             -0.121105107963872E+01
              0.995519530975795E+00
              0.424411160179203E+00
             -0.975026686427503E+00
              0.283455511764994E+00
              0.757671696098772E+00
              0.813028937226453E+00
              0.746408011458803E-01
              0.328833601072532E+00
              0.129864628630294E+01
             -0.400688635760232E+00
              0.166513921752128E+00
              0.114208759638333E+01
             -0.615503957322507E+00
             -0.434071694585223E+00
              0.103444445216790E+01
              0.528013071376074E+00
              0.130934381291846E+01
              0.602095220309411E+00
              0.241872624964588E+00
              0.420039544290848E+00
              0.738084649644685E+00
             -0.937039600337458E+00
              0.142950914249825E+00
              0.515277145798257E+00
              0.196642530047123E+00
              0.427200344913126E+00
             -0.107747512658650E+01
              0.546323344783261E+00
             -0.741452769840020E+00
             -0.539655552763140E+00
              0.359003386953685E+00
             -0.135559925847174E+00
              0.104937231346643E+01
             -0.211172320238572E+00
              0.511149675056511E+00
              0.516844388448092E+00
              0.131537364191639E+01
              0.896769650242904E+00
              0.878804082323801E+00
             -0.750599063066382E-02
             -0.212967203794753E+00
             -0.506875650377943E+00
              0.142546741756425E+01
              0.141591858602846E+01
              0.683164857394708E+00
             -0.498441120867391E+00
              0.845044998071475E+00
              0.252719260811762E-01
              0.270356189831619E+00
              0.120224668517776E+01
             -0.392646328782553E-01
             -0.163615906083746E+00
             -0.337945240631397E+00
             -0.108007725867651E+01
              0.166367486190754E+01
              0.908523946724872E+00
             -0.112221968608875E+01
             -0.381470702019163E+00
              0.422891363470010E+00
             -0.166576531935620E+00
              0.113687219702443E+01
              0.251820944479000E+00
              0.140428024907063E+01
              0.557496886553733E+00
             -0.380569976179925E+00
              0.298240733691134E+00
             -0.119481702310310E+00
             -0.423580253126159E+00
              0.292814048317650E+00
              0.256359963690398E+00
              0.157586498845813E+01
              0.131658015619488E+01
              0.991280502191223E+00
              0.114078226080381E+01
              0.122405550470315E+00
             -0.438359413945102E+00
              0.235853710330806E+00
             -0.557492448691491E+00
             -0.987032529309106E+00
             -0.955441133081962E+00
             -0.552511411683122E+00
             -0.185895890201695E+01
             -0.657804831432158E+00
             -0.149607895821808E+01
              0.376474734555514E+00
             -0.767896013007721E+00
              0.891789301139028E+00
             -0.171971295351195E+01
             -0.517365645249872E+00
              0.638841430737110E+00
              0.374045687396301E+00
             -0.157932756025014E+01
              0.904222074244428E+00
             -0.484165119328427E+00
              0.950141200431347E+00
             -0.441376290930245E+00
             -0.135277460445214E+01
              0.293940561768774E+00
             -0.113200672267049E+01
             -0.345481449131548E-01
             -0.393150801813464E-01
              0.697290553228228E+00
              0.216973545030094E+01
             -0.731982440956440E+00
             -0.636039513177243E+00
             -0.121030138279136E+00
             -0.128850736486949E+00
             -0.137877589571430E+01
             -0.962235846432761E+00
              0.842152411230742E+00
             -0.298436552902941E+00
              0.405149859052647E+00
             -0.844672425672519E+00
             -0.284635484287951E+00
             -0.709997098823130E+00
              0.833565610685274E+00
              0.194769236217951E+00
             -0.423168407219594E+00
             -0.326170560796088E+00
              0.239614715620063E+00
             -0.119780825561790E+00
              0.686985878097146E+00
             -0.454759292377560E+00
              0.214518394725777E+00
              0.600159283702029E+00
              0.206115872628056E+00
             -0.422390914469240E+00
              0.266320024211612E+01
              0.104202417051072E+01
              0.167655031930568E+00
              0.110365695452414E+00
             -0.104729908729290E+01
              0.576741904399208E+00
             -0.136005900877455E+01
             -0.592864307252960E+00
             -0.103603452440893E+01
             -0.320604185136930E+00
              0.102565822007690E+01
             -0.100215718558363E+01
              0.473814511112645E+00
             -0.820867030592751E-01
              0.169669854207832E-01
             -0.535073313476163E+00
             -0.715349419800260E+00
             -0.130881757493714E+00
             -0.545741387257408E+00
             -0.366946398957353E+00
             -0.689712270650098E+00
             -0.900458069650928E-01
             -0.551035927017367E+00
             -0.831956878625280E+00
              0.347903852705096E+00
             -0.189493191161469E+00
              0.426762270931075E+00
              0.136524240448591E+00
             -0.131200849620147E+01
             -0.864679663169459E+00
             -0.877120532845554E+00
              0.527309552156595E+00
             -0.119630548634183E+00
             -0.104714140663781E+01
              0.986024627322049E+00
             -0.725481263106668E+00
              0.103178087137271E+01
             -0.543200697365864E+00
             -0.841555416851071E+00
              0.412091236685686E+00
             -0.124758809695067E+01
             -0.539833366580056E+00
              0.995485754865402E+00
              0.351136083808731E+00
             -0.773426893535643E+00
              0.967413129013480E+00
             -0.276685507261138E+00
             -0.650178610204687E+00
             -0.510470705616861E+00
             -0.901547476582547E+00
              0.454874983511577E+00
             -0.150225522647745E+01
             -0.130540365978342E+01
             -0.140070023856494E+00
             -0.501655408815869E+00
             -0.104744318994289E+01
              0.132349122271342E+01
              0.238298949904609E+01
             -0.360002867103557E+00
             -0.739942223591168E-01
             -0.102584647619414E+01
              0.115017260693075E+01
              0.374057122682223E+00
             -0.370477938216780E+00
             -0.616130186631908E+00
              0.248710311517717E+00
             -0.101543394930388E+01
             -0.200754967471002E+00
             -0.146715967058908E+01
              0.587749451935453E+00
              0.176266845999616E+00
             -0.924500128974746E-01
             -0.219931948211124E+00
             -0.739044598982057E+00
             -0.240425029078415E+00
              0.236430819302570E+01
             -0.273337159404598E+00
             -0.848078880111168E+00
             -0.120376062404363E+01
              0.245868374908532E+00
             -0.672865059586196E+00
              0.183686975980505E+00
              0.576021502173250E+00
              0.898391048224632E-01
              0.618907100969697E+00
              0.315645477925240E+00
              0.101375138510351E+01
              0.413980060436647E+00
             -0.637841684055459E+00
              0.956144861948155E+00
              0.586658728839335E+00
              0.213019670248094E+00
              0.639292011276558E+00
             -0.561702993293852E+00
              0.123450621280544E+01
              0.461056278920469E+00
             -0.600994117891891E+00
             -0.907941913986543E-01
             -0.289994368417112E+00
              0.268330000127203E+00
             -0.421184705746979E+00
             -0.217878618374554E+00
             -0.222364528002956E+00
              0.140471469295609E+01
              0.100643066194745E+01
             -0.108933985513261E+01
             -0.148431892179446E+00
             -0.854709735693646E+00
             -0.228262467344196E+00
             -0.360416721960657E+00
              0.196787806638770E+00
             -0.472640910178243E-01
             -0.502173691370887E+00
              0.313574956488432E+00
             -0.161204860961390E+00
             -0.112384379044588E+00
              0.150754102989556E+01
              0.247963914222710E+00
             -0.145706481724784E+01
             -0.656357146491173E+00
              0.167040085914958E+01
              0.413083116222340E+00
             -0.146501662242430E+00
              0.189526090657304E+01
             -0.273239754229707E+00
             -0.135436368505379E+00
             -0.208678493893967E+00
              0.273313051513132E+00
              0.587934532519912E+00
              0.432098489820247E-01
              0.487948525263220E+00
             -0.188861432688706E+00
             -0.697890167776288E+00
             -0.691841474868577E+00
             -0.826413348192505E+00
              0.699817361784157E+00
              0.245143903527090E+00
              0.651920541486140E+00
              0.274722113334696E+00
              0.156598796178789E+01
              0.353709424272479E+00
             -0.134540832625149E+01
             -0.573501285257753E+00
              0.374470179030886E-01
             -0.484386869687137E+00
              0.110674388986366E+01
             -0.264392495784573E+00
              0.293405192190985E+00
              0.958963247951862E+00
             -0.139802874125221E+01
              0.255128454630920E+01
              0.341635339041920E+00
              0.416902895627985E+00
              0.657964749771317E+00
              0.523669237401263E-01
             -0.276623951148052E-01
              0.558142858631603E+00
             -0.610561021488965E+00
              0.151157174584549E+01
              0.131552553847910E+01
             -0.681526439470161E+00
              0.281642322690008E+00
              0.124429673047025E+01
             -0.365662127758735E+00
              0.364050790036385E+00
              0.565324196368833E+00
              0.706645082585948E+00
             -0.128378540009897E+01
             -0.978833309832776E-01
             -0.450216216677903E+00
             -0.958369202866534E-01
             -0.121566795378483E+00
              0.126801007923370E+00
             -0.209101822459482E+00
             -0.529476165697769E+00
              0.290674772641212E+00
              0.984209174091948E-01
              0.917037624838499E+00
             -0.808161467156046E+00
              0.803305546501109E+00
              0.873283742455761E+00
             -0.144023811243868E+00
              0.129561805402227E+01
             -0.116719200866625E+01
             -0.179252015653895E+01
             -0.152117279529913E+00
             -0.120693378928184E+00
             -0.154986503660890E-01
              0.136199076644700E+01
             -0.128352659505271E-01
              0.739727105879890E+00
              0.103376976136651E+01
              0.677683913488487E+00
             -0.130744327966161E+00
              0.101924034274857E+01
             -0.288158360185890E+00
             -0.674113193377622E+00
             -0.607671711283297E+00
              0.186827438464279E+00
              0.592244138243704E+00
             -0.406968649143211E-01
              0.577836748900335E+00
              0.100367402399471E-02
              0.962547704974980E+00
              0.275068317780663E+00
              0.142777043388655E+00
              0.163870811033080E-01
              0.508873743343799E+00
              0.701007764234247E+00
              0.252699069571109E+00
             -0.584570410707457E-01
             -0.945032264899015E+00
              0.523037858414389E+00
              0.360522733518666E+00
              0.567322917361395E+00
              0.509531451821522E+00
              0.631777060548107E+00
             -0.157307575912063E+00
              0.596605831915928E+00
             -0.510428823057779E+00
             -0.249470171669746E-01
             -0.913542986244672E+00
             -0.595424235539054E+00
              0.744137737186523E+00
             -0.152508590844452E+01
              0.410242385515117E+00
              0.248318984543847E+00
              0.149576032228120E+01
             -0.213110085550224E+00
              0.574600129081585E+00
             -0.195815779217902E+00
             -0.860834161456409E+00
             -0.113172691195374E+01
             -0.266303164225857E+00
             -0.156842990066827E+01
              0.138033897080399E+00
             -0.354586917889970E+00
              0.564487112251075E+00
              0.434365131222879E+00
             -0.504605473462051E+00
             -0.525177430029004E+00
              0.735636430474882E+00
             -0.100868298002258E+01
             -0.240284459197566E+00
             -0.287044701035465E+00
              0.480229083684384E+00
              0.938332414012564E-01
              0.676883920106239E-01
             -0.262341393583472E+00
              0.934408755615564E+00
             -0.105113176000711E+01
              0.112144281612155E+00
              0.104844616020975E+01
             -0.640846503195801E+00
              0.684825299893861E-01
              0.385020470253874E-01
             -0.111470278476663E+01
             -0.650903109535212E+00
             -0.247674750808093E-01
              0.543284052455547E+00
              0.610434546926464E+00
              0.775914129260036E-01
             -0.214367538495580E+00
              0.295170804342703E+00
             -0.694534284391007E+00
             -0.877131788608603E-01
             -0.910140217181883E+00
             -0.463594230212931E+00
              0.868426690786153E+00
             -0.526537921955915E+00
              0.121716169374603E+01
             -0.412048771393428E+00
              0.566236913627866E+00
              0.439867052733007E+00
             -0.103695055578417E+01
             -0.430506895514292E+00
              0.178944844880305E+00
             -0.742490168850261E+00
             -0.708549542496300E+00
             -0.155554051822860E+01
             -0.952680641383649E+00
             -0.856307586331915E+00
             -0.781272457080505E+00
              0.204839293221282E-02
              0.424417182335291E+00
              0.198344639732535E+00
              0.485119703484479E+00
             -0.101633645072542E+01
              0.233556034832386E+00
              0.505563139222259E+00
             -0.118587959083774E+01
             -0.990968429503897E+00
             -0.688511455253588E+00
             -0.576225061498187E+00
              0.242047615040511E+00
             -0.524233311532658E-01
             -0.720388597139253E+00
              0.479084760738050E+00
             -0.408860395261934E+00
              0.900463486817061E+00
             -0.153528524143918E+01
              0.111732733400466E+01
             -0.209825781166001E+00
             -0.756558913049695E+00
             -0.471982166039725E+00
             -0.163420447402853E-01
              0.848066008992522E+00
             -0.121216360273087E+01
             -0.220926399870140E+00
             -0.293230729422052E+00
              0.710968089683744E+00
              0.139619396383985E+01
             -0.174474707031161E+01
              0.158967517909984E+01
              0.661094451096011E+00
             -0.132036474966221E+01
             -0.540166307696427E+00
              0.137567631620553E+01
              0.984856039574860E+00
             -0.363573897949825E+00
             -0.118748386917094E+00
              0.317184816209425E+00
              0.135266344739116E+01
             -0.102899331555510E+01
              0.218285744792154E+00
             -0.138082899287568E+00
              0.446160934892603E+00
             -0.122314919836983E+01
             -0.463815344665863E-01
             -0.459957313131963E+00
              0.840770361565869E+00
              0.663054402483736E+00
             -0.154977751585170E+01
             -0.817579946879573E+00
             -0.357927772073563E+00
             -0.770307985496453E+00
             -0.214415255226170E+00
             -0.300787407195326E+00
              0.792342648660197E+00
              0.746223476709711E+00
             -0.192852796975442E-01
             -0.778456406528117E+00
             -0.149676617567998E+01
              0.887452542963979E+00
             -0.797815784523827E+00
             -0.655217143286883E+00
              0.124724837720016E+00
             -0.654057270546163E+00
             -0.701191917350372E+00
             -0.539527042253737E+00
             -0.889084367599636E+00
             -0.413473093817856E+00
             -0.863193446527040E+00
              0.945834457092707E+00
              0.101084661728896E+01
             -0.190923233728856E+00
             -0.352772795275275E+00
              0.538433867992580E-01
              0.732683501929310E+00
             -0.146406417173148E+01
             -0.401229028166341E+00
              0.856463773070729E+00
              0.125470682555434E+01
             -0.176817154069925E+00
              0.170580555732352E+00
              0.924238615624040E+00
              0.260210663513639E+00
              0.338782637617445E-01
             -0.684182447060572E+00
              0.251106266008448E+00
             -0.561852120012378E+00
             -0.118493609030129E+00
             -0.372686503753227E+00
             -0.245203729937491E+00
              0.424540199681647E+00
              0.136577977027996E+01
             -0.116371356193630E+00
              0.284498729420304E-01
             -0.158744445977616E+01
             -0.309121765676522E+00
             -0.614922963791408E+00
             -0.216259191329682E-01
             -0.836844401409570E+00
              0.157006248026618E+01
              0.149801219132584E+01
              0.309427056270496E+00
             -0.404195664821505E+00
              0.323546724768888E+00
              0.343778811194185E+00
             -0.806980182044837E+00
             -0.168553099232172E+00
              0.351483143883295E+00
              0.206615186746464E+00
              0.888775168417212E+00
              0.672284021987023E+00
             -0.360889808460075E+00
              0.367038693594686E+00
             -0.168781350767003E+01
             -0.226891946404684E-01
              0.155564575479796E+01
              0.310875898963173E+00
             -0.543719194988306E-01
              0.471808121266942E+00
             -0.423772645042779E+00
              0.150476326294224E+01
             -0.353289940140650E+00
              0.133993902535377E+01
              0.666811217812014E+00
             -0.767582415353084E+00
              0.578200013983792E+00
             -0.488447689247805E+00
             -0.118397431032772E+01
             -0.134108853153616E+00
             -0.936485473847884E+00
             -0.904421264917710E+00
             -0.303061381462046E-01
              0.656579367781422E+00
             -0.245775614544717E+00
             -0.524153638175243E+00
              0.130944208200725E+00
             -0.113948833343054E+01
             -0.635108150344608E-01
             -0.150435798988190E+01
              0.892420545658652E+00
             -0.631296781068404E-01
             -0.852457678361773E+00
             -0.263644981571662E+00
              0.303145928354155E+00
             -0.664800719309650E+00
             -0.769867869194057E+00
              0.159678386526602E+01
             -0.479513338466310E+00
             -0.644414510861338E+00
              0.553477579921450E+00
             -0.379785776459327E+00
              0.998312219960508E+00
             -0.494217504086141E-01
              0.508906849593895E-01
              0.190997248898916E+01
             -0.146421464492267E+00
             -0.666286051627075E+00
             -0.820791205504747E+00
             -0.881208557503633E+00
             -0.647843227089552E+00
              0.503184811846459E+00
              0.538290616445815E+00
              0.476201752768801E+00
              0.129447375455015E+01
              0.101822134745646E+00
              0.398267004215669E+00
             -0.100575695975566E+01
              0.404150352021793E-01
             -0.265674242486984E+00
             -0.480128381801039E+00
             -0.124469880223124E+00
              0.572731252123277E+00
              0.662774927225298E+00
             -0.392322275738259E-01
              0.237185189203302E+00
              0.471072920440227E+00
              0.590151447736535E+00
             -0.419883755347171E+00
             -0.177239626350707E+00
              0.608681683003542E-02
             -0.450233417308031E+00
             -0.490995701111565E-01
             -0.696282806660022E+00
              0.137980763394418E+01
              0.107684993461131E+01
             -0.317156751689208E+00
              0.291839654676146E+00
             -0.981220995775697E-01
             -0.552543173963205E+00
              0.648176649465783E+00
             -0.162615945879057E+00
              0.649199663102403E+00
             -0.833612322441226E+00
              0.314434642645663E+00
             -0.145474098698294E+00
             -0.935353190142555E+00
             -0.424719681187355E+00
              0.425788778836768E+00
             -0.168449979760549E+01
              0.675038949881632E+00
              0.810700516521690E+00
             -0.173377025406586E+00
             -0.128364068531578E+00
             -0.731313393186088E-01
              0.463105733489050E+00
             -0.589197169525449E+00
              0.542812009226569E+00
              0.555588491727957E+00
             -0.156918263293819E+01
             -0.637896186549742E+00
              0.417847802621265E+00
             -0.208882610610624E+00
              0.849050203173586E+00
             -0.108061141099987E+01
             -0.178290510666681E+00
             -0.692486470404004E+00
             -0.226300764260882E+01
              0.136810329919794E+01
             -0.103424488836480E+01
             -0.115545067078290E+01
              0.108730191368630E+00
              0.224078707212829E+01
              0.115514610850924E+00
             -0.561898594971340E+00
             -0.274245888318836E-01
             -0.709062757304584E-01
             -0.148182622837240E+01
             -0.960156185004583E+00
              0.147887090845731E+01
             -0.206777211846636E+00
             -0.627738822610609E+00
              0.838575253845663E+00
             -0.569796156010779E+00
              0.582202809778444E+00
              0.845898939859617E+00
             -0.920219454046666E+00
             -0.483598995410884E+00
             -0.560709914317959E+00
             -0.310040904058981E+00
             -0.330812027470929E+00
             -0.312554929684105E+00
              0.340074196107297E+00
             -0.615179457180993E+00
              0.482197081977390E+00
              0.951010228687286E+00
             -0.116946739736249E+00
             -0.367261257366521E+00
              0.267672556388312E+00
              0.955002274454602E+00
              0.953311284252801E+00
              0.192004577001342E+00
             -0.178241772793643E+00
             -0.190561277947800E+00
             -0.923525363796465E+00
              0.704324076429707E+00
             -0.422028728501828E+00
              0.397577855511095E+00
             -0.228784660589994E+00
              0.450887421539862E+00
              0.302440249866429E+00
             -0.141474888772573E+01
             -0.435800003775624E+00
             -0.136543479032096E+01
             -0.689147765100017E+00
              0.720860902801330E-01
             -0.341718736423758E+00
              0.608749845319996E+00
             -0.499972915330000E+00
              0.634019686786997E-01
              0.130831318512044E+00
              0.121339123701459E+01
              0.623006644245780E+00
             -0.567287623245349E+00
             -0.370987906143059E-01
              0.253880984058846E+00
              0.647858010713448E+00
             -0.159690147655605E-01
              0.976960806212776E+00
              0.465258614905535E+00
              0.157003872896240E+01
              0.543916586043405E-01
              0.107707320284878E+01
             -0.482780813683554E+00
             -0.674050709902763E+00
              0.350269848487752E-01
              0.186870059459565E+00
              0.399587895756348E+00
             -0.350544921139349E+00
             -0.193484212963933E+00
              0.411153087692736E+00
             -0.822119027594184E+00
             -0.104082619514386E+01
              0.139053648844127E+01
             -0.108077693051017E+00
             -0.635003765135336E+00
             -0.859303327321934E-01
             -0.246781766459963E+00
              0.769932054109363E+00
              0.623236519645121E+00
             -0.353261585729172E+00
              0.424844485729459E-02
             -0.440447208680617E+00
             -0.616044036943100E+00
             -0.417364106976025E+00
             -0.170317236727012E+01
              0.264137248109915E-01
             -0.110943643735688E+01
             -0.102373094592024E+01
             -0.642675029431633E+00
              0.389415992441569E+00
             -0.664127730340133E+00
              0.424741080003723E+00
             -0.112401684867932E+01
              0.106600093917919E-02
             -0.734914013911153E+00
              0.146542635260251E+00
              0.141221915901046E+00
              0.613027099201990E+00
             -0.359832090734305E+00
             -0.311190625906052E+00
              0.551478777328457E+00
              0.102731160076208E+01
              0.566326546535592E+00
              0.189026721099296E+00
             -0.129163223130455E+01
             -0.281637225405593E+00
             -0.489899935721482E+00
             -0.106167071740035E+01
              0.742801896256255E+00
             -0.603110992959181E+00
             -0.123214446129429E+00
             -0.478645767959423E+00
             -0.172354312285032E+01
              0.963729234983943E+00
             -0.322744607238769E+00
              0.672953684794969E+00
             -0.128255272415197E+01
              0.114007462021007E+01
              0.108461171073604E+00
             -0.446442455786214E+00
              0.182791711886013E+00
             -0.344641990684162E+00
             -0.108258318534477E+01
              0.291948219677110E+00
              0.683727022493253E+00
             -0.236573086932275E-01
             -0.599365074907890E+00
             -0.279912276808281E+00
              0.355638754250172E+00
              0.636601665601958E+00
              0.107057389676087E+01
              0.393500122500685E+00
             -0.399660743307230E+00
              0.174186730036728E+01
              0.372721083984832E+00
              0.819154507721984E+00
             -0.295596268420114E+00
              0.505750813289032E+00
              0.417737091046336E+00
             -0.106784899677374E+01
             -0.384132081291593E+00
             -0.705799441179141E+00
             -0.720779445489756E+00
             -0.211724831506981E+00
             -0.158132184627986E+00
             -0.804853426788160E+00
             -0.192056514694125E+01
             -0.472955535297989E+00
              0.231929244743705E+00
              0.114833645310519E+00
              0.272830115732086E+00
              0.711651014068150E+00
              0.187658905030604E+00
              0.547787138308471E+00
             -0.743215465946206E+00
              0.750421314933678E+00
             -0.696526311034619E+00
             -0.117548659927356E+01
              0.359819415190270E+00
             -0.741855946464305E+00
             -0.690934710113657E+00
             -0.276382710774508E+01
             -0.130892791884822E+00
              0.146390577902630E+01
              0.704013632814642E+00
             -0.178558133668280E+00
             -0.190415556731950E+00
              0.763504130786858E+00
              0.111774301258448E+01
             -0.676059901078303E+00
             -0.216863415870622E+00
             -0.634772785054467E+00
             -0.581926331493346E+00
             -0.509531032154527E+00
              0.184141481053676E+00
              0.120315154642667E+01
             -0.112494124079006E+01
             -0.945606619027949E+00
              0.653216271535237E-01
             -0.256112448952532E+00
             -0.287207008007794E+00
             -0.155095154502130E+01
              0.109810291819014E+01
              0.348511444262693E+00
              0.173239657111386E+00
              0.896770259137647E+00
             -0.574519873500941E+00
              0.576653593361768E+00
              0.496553952643533E+00
              0.217397622793802E-01
             -0.136717439970499E+00
              0.143778231788960E+00
             -0.275783902140322E+00
              0.922451674655880E+00
             -0.687211064626451E+00
              0.808206434676923E+00
              0.155787795275497E+00
              0.292401010515583E+00
              0.351049549104554E+00
             -0.142640219914078E+01
              0.181769776224789E+00
             -0.115472486511955E+01
             -0.832492918190266E+00
             -0.823218433544084E+00
             -0.912840165534735E+00
             -0.199861154309389E-02
              0.330820376574400E+00
              0.865197742313463E+00
              0.126924480388754E+00
              0.258640751262229E+00
             -0.120444529664347E+01
             -0.479200914224771E+00
              0.554257623481371E+00
             -0.734699054221661E-01
             -0.576195094638301E-01
             -0.160996720310168E+00
              0.621698183661014E+00
             -0.157475426299784E+01
              0.224957951977305E+00
              0.352085966576945E+00
              0.685643032144536E+00
              0.641613951302162E+00
             -0.981379179304877E+00
              0.267182891469196E+00
              0.112478411203600E+00
              0.113910160768455E+00
              0.107456578092480E+00
             -0.332216224860963E+00
             -0.741280215454719E+00
              0.309483790185422E+00
              0.101338646910171E+01
             -0.194386182758688E-01
              0.233663598966763E+00
              0.226150959941442E+00
             -0.528354405954956E+00
             -0.566701938564183E+00
             -0.212199837427576E+01
             -0.650206414805812E+00
             -0.101595939870698E+01
             -0.103445911902601E+00
             -0.118177017757161E+01
              0.130477934574743E+01
             -0.579948701568380E+00
             -0.956923577078504E+00
             -0.271446627975753E+01
              0.115680173604495E+01
              0.259823299778174E+00
              0.186152679653817E+00
             -0.106118709291782E+01
              0.754254112413246E-01
             -0.296905671697649E+00
             -0.541929029780497E+00
              0.160337302801875E+00
              0.562885594718528E+00
              0.881084851911371E-01
             -0.363911659879181E+00
              0.625587920733128E-01
              0.237670958565186E-01
              0.191602732569569E+00
             -0.114900574290866E+01
              0.127775645175042E+01
             -0.724621481537912E+00
             -0.462299261442058E+00
             -0.898113712429254E+00
             -0.189677712962041E+01
              0.856065888558397E-01
             -0.994229947153016E+00
             -0.310424249202330E+00
              0.533019513382776E+00
             -0.468089762698082E+00
             -0.186084359703518E+00
             -0.226877129466480E+00
             -0.338531170913450E+00
              0.629142214421002E-01
              0.900428896713315E+00
             -0.863905519708189E+00
              0.179943078137334E+01
             -0.433130660513920E+00
              0.554010608896621E+00
             -0.313009819887698E+00
              0.201647210092197E+00
             -0.208366592953454E+00
              0.767147985380810E+00
              0.108165726229349E+01
              0.315868549540986E+00
              0.757359850229653E+00
             -0.515799053040355E+00
             -0.133078833921034E+00
             -0.402835023882444E+00
              0.111642148679888E+01
              0.958127886069697E+00
              0.700584502292147E+00
             -0.216244286644681E+00
             -0.448629918406606E+00
              0.421959070261711E+00
             -0.510238890300124E+00
             -0.255800303470181E+00
             -0.955997123550656E-01
             -0.611231666157020E+00
              0.845681911767437E+00
             -0.186586138325383E+00
              0.632177877622636E+00
              0.388474912380627E+00
              0.257506340546754E+00
             -0.587178488552098E+00
              0.430522748263305E+00
             -0.251000487348034E+00
             -0.131652142215305E+00
             -0.205580463904047E-01
             -0.826388291191149E+00
              0.133713751526430E+01
             -0.456741630831542E+00
             -0.122118115081316E-01
              0.429271024758910E+00
              0.359699693420119E+00
              0.133459757756610E+01
             -0.364462639756193E+00
              0.129974453290037E+01
              0.115322792652222E+01
             -0.161046790339745E+01
              0.118360605364666E+00
             -0.322061401226700E+00
              0.223908414595159E+00
              0.876409628050090E-01
              0.374342717300605E+00
              0.111102911526984E+01
              0.174019887480151E+01
             -0.126511372312108E+01
              0.132015302044394E+01
             -0.174600253517870E+01
             -0.149472023319850E+01
             -0.259277018109108E+00
              0.109254835418304E-01
              0.135578011167996E+01
              0.563385167040323E+00
             -0.227952063843880E+00
             -0.144722832630217E+01
              0.116921506682015E+01
             -0.703725116952874E+00
              0.237330872662156E-01
             -0.934318777103977E-01
              0.223893652942413E+01
             -0.387600411367287E+00
             -0.182947823309682E+01
              0.523769528555592E+00
             -0.281390779680792E+01
              0.216345201082906E+00
             -0.663212341331788E+00
             -0.309840636525267E+00
             -0.449279923662217E+00
             -0.103269268296221E+01
              0.637680352901457E+00
             -0.640915026431625E+00
             -0.243765728755018E+00
             -0.131053247658342E+01
             -0.692063392657714E-01
             -0.940114344543771E+00
             -0.134289874947297E+01
             -0.183529017270831E+01
              0.134950818133505E+00
             -0.649606095068688E+00
              0.184398822203290E+00
             -0.243894727232551E+00
             -0.144255462405940E+01
             -0.111968667185253E+01
             -0.982921698514698E+00
             -0.102261227131922E+01
              0.908188049315625E+00
              0.902600303109460E-01
             -0.867628688510298E+00
             -0.428672950743104E+00
             -0.476394004108878E+00
              0.726904934076164E+00
             -0.528486021936380E+00
             -0.745195810372680E-01
             -0.552160409958613E+00
             -0.676221989396318E+00
             -0.726986163089796E+00
              0.696606605583165E+00
             -0.232190799091308E+00
             -0.161222432384426E+01
              0.133663187697676E+01
              0.778505765665852E+00
              0.488077852227820E-01
             -0.141077193390386E+01
             -0.129193798768518E+01
              0.827538852823828E-01
              0.879625447565857E-02
             -0.576999254972911E+00
             -0.755207618660717E+00
              0.514879166797320E+00
             -0.848606791171633E-01
              0.470683924684677E+00
              0.839145758954491E+00
              0.596977475968049E+00
              0.441126522078591E+00
              0.381219668506769E+00
             -0.384760486660563E+00
             -0.264935277545506E+00
             -0.332176207860383E+00
             -0.665572492619153E+00
             -0.805810922394922E+00
             -0.104502839426617E+01
             -0.623819399102475E+00
             -0.219914309275385E+00
             -0.128556801902550E+01
             -0.298381409205779E+00
              0.631714413577765E+00
             -0.146692841200264E+01
              0.629467119007029E+00
              0.512909278882688E+00
             -0.126705775240200E+01
             -0.971113741430820E+00
             -0.397186205081324E+00
              0.218960992824833E+00
             -0.718180786023948E+00
              0.130377028407958E+01
              0.115583898565724E+01
             -0.134038706835077E+01
              0.714969665263691E+00
              0.627526026366758E+00
              0.165564208632398E+00
              0.334339112793572E+00
             -0.743001299064222E+00
             -0.263677631088543E+00
              0.117792486110798E+00
              0.357354738871456E+00
              0.714364602411312E+00
             -0.924631070535856E+00
             -0.190854969650983E+00
              0.276246916330063E+00
              0.182559151581399E+00
             -0.583586813015403E+00
              0.322313267281531E+00
             -0.429975793135291E+00
             -0.316844128773904E+00
             -0.137781289585686E-01
             -0.107080395824655E+01
             -0.227316240595465E-02
             -0.159354894969566E+00
             -0.268640821926874E+00
              0.267862765777694E+00
             -0.918381121389081E+00
              0.102693639659643E+01
             -0.376667995283952E+00
             -0.233795744749189E+01
             -0.148607669207663E+01
              0.604778217808261E+00
             -0.735779983637471E+00
             -0.369225691593284E+00
             -0.398767148805063E+00
             -0.339319209122157E+00
             -0.179377102172713E+01
             -0.211928877101144E-01
             -0.108078156792168E+01
             -0.596848520273860E+00
              0.341174228127938E+00
              0.138704496195513E+01
              0.838319458940002E-01
              0.391665212647250E-01
              0.104648873103442E+01
             -0.101868654855334E+01
              0.491237197096313E+00
              0.106712876954306E+00
             -0.920581177273199E+00
             -0.533337673932985E+00
              0.340750053814379E+00
              0.567994940144503E-01
              0.287119712030839E+00
              0.232536431749585E+00
             -0.405541696134197E+00
             -0.586802551570571E+00
             -0.879893260131317E+00
              0.870086164788624E+00
             -0.117881048845187E+01
             -0.870671743924643E+00
              0.243216876983202E+00
             -0.146265275079890E+01
              0.412568855066976E+00
              0.105853120487284E+01
             -0.195230176398534E+00
              0.341932146107129E+00
             -0.587629989862721E+00
             -0.391526447803362E+00
              0.181698296548245E+00
              0.629848036809964E+00
             -0.640270729918005E+00
              0.397495749674223E+00
             -0.243566576565826E+00
              0.135332394958752E+00
              0.323361769430901E+00
              0.162502355622677E+00
             -0.223207822629188E+00
             -0.155005767376011E-01
              0.207799503647683E+00
              0.488197742240398E+00
             -0.123699637217280E+01
             -0.232380264989018E-01
              0.910971084790283E+00
             -0.153435188562972E+01
              0.568288166575634E+00
             -0.197322048630596E+01
             -0.205242850730326E+00
             -0.246420478879783E+00
             -0.519513832195777E-01
             -0.222525015272278E+00
             -0.472703328676708E+00
             -0.185312729990326E+00
              0.208295126219624E+00
             -0.455617472777306E+00
              0.191055017081766E+00
              0.157584624021134E+01
             -0.990221422586986E+00
             -0.435424101759883E+00
              0.733383918676007E+00
              0.367478964040290E+00
              0.745348833434416E+00
              0.359479837722092E+00
              0.285446807052510E+00
             -0.256805835995698E+00
             -0.854740529181664E+00
             -0.778886320785626E+00
             -0.605705466091087E+00
              0.100479265076689E+00
             -0.744522990981942E+00
             -0.209417495049481E+00
              0.106520798396626E+00
              0.423991490802740E+00
             -0.120991538097041E+00
              0.102413909105832E+01
             -0.113632079412312E+01
             -0.159512397408426E-01
             -0.118822303622288E+00
              0.543484427794666E+00
             -0.728327465271399E+00
             -0.477798743435809E+00
              0.228752492776483E+00
              0.774929910295840E+00
              0.131573718708767E+01
              0.518557844253635E+00
              0.800096926380986E+00
             -0.430105114174103E+00
              0.109821629356917E+01
              0.110251991440962E+01
             -0.208499178231243E-01
              0.532019612742594E+00
              0.649794133725416E+00
             -0.368512633232208E+00
              0.250677621304218E+00
              0.113651601741503E+01
             -0.368734927472161E+00
             -0.111101246452776E+00
             -0.107071932340077E+01
              0.386659214370966E+00
             -0.263813027480166E+00
              0.367255931095218E+00
              0.249111847992167E-01
             -0.678780954249199E+00
              0.785341397897617E+00
              0.681936232930497E+00
             -0.547357318184121E+00
              0.307916027791700E+00
             -0.104667121165760E+01
             -0.940589128762310E+00
              0.428049640875786E+00
             -0.117895249261259E+01
             -0.595243806665026E+00
              0.163287890189778E-01
              0.148585345127038E+01
             -0.399248369315694E+00
             -0.192436775489312E+00
             -0.355601548994557E+00
              0.193897338334429E+01
              0.309330341003371E+00
             -0.744202625844067E+00
              0.123014113361972E+01
              0.108429457301208E+01
              0.562733856548124E+00
              0.138159272935154E+01
              0.152397256929066E+01
             -0.583340070093055E-01
             -0.499727134841418E+00
             -0.431156637881216E+00
              0.486557495420929E+00
              0.683381344189021E+00
             -0.127684720989130E+00
             -0.416927172210632E+00
             -0.999444288774032E+00
             -0.359673562921935E+00
             -0.804658910409842E+00
              0.585963886684553E+00
              0.308335582849670E+00
              0.105562961020841E+01
              0.233561376557064E+00
             -0.394184873572780E+00
             -0.151635912811062E+00
              0.685811342619123E+00
              0.178912730226081E+00
              0.106125110910197E+01
              0.961062713999103E+00
             -0.146737525891471E+00
             -0.163475918599755E+00
             -0.177136257341615E+01
              0.856751780694867E+00
             -0.391524385760711E-02
              0.998551552091268E+00
             -0.438901649992871E+00
             -0.114198173501832E+01
              0.339635468161499E+00
              0.126006134919170E+01
             -0.435845969431122E+00
              0.114671834303845E+01
             -0.124700446666347E+01
             -0.448228048015974E+00
             -0.148779343853865E+01
              0.274013077480508E+00
              0.760524725687031E-01
              0.148583979486943E+00
             -0.108007253483593E+01
              0.162472358595510E+01
              0.935885397734168E+00
              0.108195644946387E+00
             -0.958290766323468E+00
              0.359761559117298E+00
             -0.316950545299668E+00
             -0.259842594061139E+00
             -0.481912477449276E+00
              0.290277188442361E+00
             -0.301591350538738E+00
             -0.318241623227387E+00
              0.410692108000008E+00
              0.406704963282633E+00
             -0.155416026742831E+01
              0.345249023424898E+00
              0.115054275707452E+01
              0.732441558646798E+00
             -0.220736765488120E+00
             -0.391642178745970E-01
             -0.635091194234193E+00
              0.960878066471045E+00
              0.160525790647131E+00
             -0.525199293317371E-01
             -0.111312372508996E+00
              0.188080883730024E+01
             -0.129897050345051E+00
              0.380099674116716E+00
              0.129782105393079E+01
              0.165951720732475E+01
              0.103779414297357E+01
              0.673677697854846E+00
             -0.112410208986867E+01
             -0.799594581967529E+00
              0.632325716754238E+00
              0.985453754247674E-01
              0.532739969451596E+00
              0.224158783906149E+00
              0.112369732451003E+01
             -0.136972347655411E+01
             -0.849666542123209E+00
             -0.199087093350418E+00
             -0.151260036030173E+01
              0.339428634671985E+00
              0.810462114560317E+00
              0.127252088818874E-01
             -0.356062958062079E+00
              0.361547643408500E+00
              0.234338014601339E+01
              0.551871329062504E+00
              0.304965869447900E+00
             -0.810764530811367E+00
             -0.100493225443827E+01
             -0.227759259111411E+00
              0.502773305369588E+00
             -0.989859317982589E-01
              0.459643036068955E+00
              0.618390681983833E+00
             -0.104811128256453E+01
              0.462529373186386E+00
              0.581403300651374E+00
              0.969701134650789E+00
             -0.170468289514020E+00
              0.100008137562869E+00
             -0.125144344566448E+00
             -0.773706827878716E+00
             -0.125205824917926E+01
              0.131253304399147E+01
             -0.174750538320502E+00
             -0.911608026206025E+00
              0.148813021145713E+00
             -0.520445770113546E+00
              0.148434084445518E+01
             -0.405544772141001E+00
             -0.654317924447103E+00
              0.645192175321332E+00
             -0.276550713661076E+00
              0.804462054968021E+00
              0.463016948993218E-01
              0.159634506657486E+01
              0.921383171588180E+00
              0.214469316179522E+00
             -0.686150638881426E+00
              0.493221234617089E+00
             -0.934676893228027E+00
             -0.831783264695369E-01
              0.111031878962607E+01
             -0.442422448450118E+00
             -0.754547126354228E+00
             -0.405744172576100E+00
              0.888914255792594E+00
              0.199947660457609E+00
             -0.139660877725351E+01
              0.586399287435436E+00
              0.100454224677211E+00
              0.191281640685402E+00
             -0.849457916852552E+00
              0.166168286095994E+00
              0.591062479729877E+00
              0.782057917950512E+00
              0.113865562284452E+01
              0.605278192764485E+00
              0.128140914775551E+00
             -0.963676612473620E+00
             -0.733618482020913E+00
             -0.110991680043854E+01
             -0.259530159605822E+00
              0.590338445982764E+00
              0.289758437407883E-02
              0.899117438808883E+00
             -0.548356171048663E+00
              0.296916734293663E+00
             -0.399611307438223E+00
             -0.473096343962602E+00
              0.102471968811161E+01
              0.923244297831793E-01
              0.108325298003759E+01
              0.842879693998526E-01
              0.335893936007543E+00
             -0.291985009389291E+00
              0.104036014316392E+01
             -0.292743720181089E+00
              0.889746223030324E-02
             -0.135274423671392E+01
             -0.121110378930033E+00
              0.120101000815447E+01
              0.109613271952228E+01
              0.449567736519425E+00
             -0.281703440535502E+00
              0.105655891742614E+00
             -0.414577405886343E+00
             -0.346231478991082E+00
              0.156057008996508E+01
              0.138567952749455E+00
             -0.501284104818070E+00
             -0.182966749661405E+01
             -0.727736188938701E+00
             -0.660614236862618E+00
             -0.104788317238670E+01
             -0.102711957307223E+01
             -0.121805176827852E+01
             -0.780415117730219E+00
             -0.476759369408429E+00
             -0.840061758021400E+00
              0.764098627992323E+00
             -0.297553129592497E+00
             -0.142978750415894E+01
              0.703907326405702E+00
             -0.579176230358752E+00
             -0.137807385679243E+01
              0.173700457970803E+01
             -0.446703371686602E+00
              0.251210103199230E+00
              0.642503240712841E+00
              0.238365605564173E+00
              0.467072081969538E+00
              0.172579241587152E-01
              0.210252259887636E-01
             -0.230121480342668E+00
             -0.128080438914433E+01
              0.184028648670335E+00
             -0.207325356071706E+01
              0.126524651591339E+01
             -0.698780066908797E+00
             -0.331676018635922E+00
             -0.366034888672385E+00
              0.382065050614436E+00
             -0.270052662855486E+00
              0.474035432839220E+00
             -0.101505356437860E+01
              0.619417485836315E+00
              0.749444072449101E+00
              0.139532325001841E+00
              0.167628524617924E+00
              0.370949621228546E+00
              0.183249758808409E+00
              0.500297412685457E+00
             -0.727622247745083E-01
             -0.130616657918064E+01
              0.160445296209296E+00
             -0.590494764828825E+00
             -0.601898218532559E-01
              0.980161915281744E+00
             -0.137225010168552E+01
              0.425554366599465E-01
              0.660535780922817E-01
              0.165000680747216E+00
              0.526683988913477E+00
             -0.217030212020613E+00
              0.145263778983522E+01
              0.628649757788329E+00
             -0.244714668356412E+00
             -0.140870828542064E+00
              0.109716483318024E+00
              0.134908540981385E+01
             -0.851328636729768E+00
             -0.174686945042780E+01
              0.505840397715092E+00
             -0.152987175814153E+00
             -0.276224132896574E+00
              0.328599066458760E+00
              0.129020051048745E+01
              0.721517944481235E+00
             -0.293065303155982E+00
             -0.938516403422135E+00
             -0.220192780734123E+00
              0.470362176082108E+00
             -0.312329335588081E+00
             -0.132563634677149E+01
             -0.169763327159477E+00
             -0.170131216140524E+01
             -0.901957006048428E+00
              0.151351712720702E+01
             -0.913987400392712E+00
             -0.123855365954479E+01
             -0.912722750279065E+00
             -0.699414607026660E+00
              0.596499610267625E+00
              0.147592347628215E+01
             -0.181711922629403E+00
              0.456921267177001E+00
             -0.365552817602528E+00
             -0.118723583750617E+01
              0.883200406945638E+00
             -0.839776962310093E+00
              0.415218350023572E+00
              0.489404167648409E+00
             -0.267354276471803E+00
              0.621951276129823E+00
              0.666501646258505E+00
              0.210399942053933E+01
             -0.166209900347877E+00
             -0.994358931666037E+00
             -0.115064733121885E+01
             -0.342970683571947E+00
             -0.733152138931799E+00
              0.160334906722444E+01
             -0.781794352893151E+00
              0.182201430363034E+00
              0.351202566974758E-01
             -0.340026960026976E+00
             -0.150052407321974E+01
             -0.111215571589178E+00
              0.174409096117547E+01
              0.385958851583445E+00
              0.123341832655239E+00
             -0.104010712633043E+01
             -0.956506833815892E+00
             -0.319163750447834E+00
              0.788533272855321E+00
             -0.460043279328017E+00
              0.174729161821152E+01
             -0.841068440109051E+00
              0.339281295846195E+00
             -0.218154278502778E+00
             -0.107527687988662E+01
              0.112797074519073E+00
             -0.976749052125712E+00
             -0.128505391889697E+01
              0.202953044433072E+00
              0.258959346196694E-01
              0.861139690439036E+00
              0.469548332796360E+00
             -0.611068767794988E+00
              0.364352670866037E+00
             -0.155190010552509E+01
             -0.815223266661983E+00
              0.160369582561582E+01
              0.579440652709340E-01
             -0.869281318191319E-01
             -0.429857217402325E+00
             -0.165219614975634E-01
             -0.220421078092048E+00
              0.160292803656162E+01
              0.717736646660892E+00
             -0.147033195106359E+00
              0.159045341784791E-01
             -0.654021158917966E+00
             -0.208057901925966E+00
             -0.107551342898880E+01
              0.900788132098614E+00
              0.115961632703228E+00
              0.132630080191566E+00
              0.339220049688613E+00
             -0.242133581946221E+00
             -0.399954837677268E+00
              0.177038609902357E+00
             -0.194964131518869E+01
             -0.186055190630712E+00
             -0.173410727256772E+00
             -0.109930357584370E+00
              0.830598292726136E+00
              0.113286177520963E+01
              0.316315901840018E+00
             -0.162122974777770E+01
              0.110466208676843E+01
             -0.408623983935569E+00
             -0.645887274007226E+00
             -0.151685487489546E+01
             -0.453548851595662E+00
              0.111273475245142E+01
              0.580865728099342E+00
              0.268725804926935E+00
              0.614156284151580E+00
             -0.981220282175962E+00
             -0.856005118519055E+00
              0.108514302469882E+01
              0.714677383109086E+00
              0.813283823339104E+00
              0.170140636916405E+00
              0.183466530893691E+00
              0.919643517744120E+00
              0.170760556081771E+01
             -0.297090648386520E+00
              0.704338853279994E+00
             -0.532222086352871E+00
             -0.760559166126070E+00
             -0.607617528839881E+00
             -0.594099235208603E+00
             -0.254654397556694E+00
             -0.826921500609770E+00
             -0.326145087110684E+00
             -0.224706887327388E+01
              0.548649318159844E+00
              0.489165279949934E+00
             -0.645513527405315E-01
             -0.642834724715373E+00
             -0.313800944213791E+00
             -0.990208622872992E+00
              0.981741653346013E-01
              0.137763783261428E+01
             -0.333485208192648E+00
             -0.328764026898920E+00
              0.339190105616268E+00
             -0.887591834520425E+00
              0.147846997974656E+01
              0.266814668941705E+00
              0.115957383379680E+00
              0.898746688420458E+00
             -0.108151912785410E+00
              0.102161072041726E+01
              0.357465442907599E+00
             -0.259827879943972E-01
              0.233304785363711E+00
             -0.181878477187206E+00
              0.115148252671625E+01
              0.123118002287653E+00
              0.369265433758630E+00
             -0.157841151530673E+00
              0.190041726183021E+00
             -0.163584153528829E+01
             -0.604614745446504E+00
             -0.866841819796816E+00
              0.856715126138668E+00
             -0.613423653149670E+00
             -0.959722989570734E+00
              0.103933089400554E+01
             -0.235258717159273E+00
              0.712009518331730E+00
             -0.153919596534152E+01
              0.299755645391847E+00
              0.651608175611700E-01
              0.127092679542734E+00
             -0.242791637423951E+00
             -0.114288091889746E+00
              0.872099290389636E+00
              0.425380032813374E-01
             -0.935482197634249E+00
             -0.376694759056826E+00
              0.312642875002883E+00
             -0.199831970397230E+01
             -0.150399329028165E+01
              0.108915061829347E-01
              0.289348502835982E+00
             -0.894891975232062E+00
              0.173494949764006E-01
              0.178283519104873E+01
              0.489197635923313E+00
             -0.936420014214365E+00
              0.134174371552426E+00
             -0.182868386089133E+00
              0.231233396930754E+00
             -0.635852920385440E+00
              0.404483963282158E+00
              0.414884890271375E+00
             -0.151563404822629E+00
              0.196855349038701E+01
             -0.622178434720215E-01
             -0.528696417554171E+00
              0.541792094661441E+00
              0.737881194515401E+00
             -0.547380104443734E+00
             -0.187071395131342E-01
              0.170522557194477E+01
             -0.216209380880112E-01
              0.919105031075685E+00
              0.287184363126880E+00
             -0.113358504005552E+00
             -0.274198059132631E+00
              0.826530637318625E+00
             -0.102547399655285E+01
             -0.285861055373671E-01
             -0.348568776155965E+00
             -0.695059740173268E+00
              0.205871202053499E+00
              0.443297001131066E+00
             -0.292674301318234E-01
             -0.252897577407412E-01
             -0.730695306043039E+00
              0.254381725832634E+00
             -0.198561860654598E-01
             -0.375575897819644E+00
             -0.349773699499311E+00
              0.272969469455447E+00
             -0.496378475434867E-02
             -0.674598512234774E+00
             -0.187789502073756E+01
              0.131254650894657E+00
              0.248984889499654E+00
             -0.865005251529227E+00
             -0.445717437931245E+00
              0.143750604745410E+01
              0.233313348585452E+00
              0.775431315258963E+00
              0.204157390047423E+00
              0.702997897817569E+00
              0.445570627283223E-01
             -0.685791851339020E+00
             -0.229372083122415E+00
              0.912515099836941E-01
              0.551006274834269E+00
              0.128442757879618E+01
              0.858949342087945E+00
              0.570917702465152E-01
              0.209100121048847E+00
              0.105475471116387E+01
              0.497017739412343E+00
             -0.119130833213560E+01
             -0.479536659254019E+00
              0.178066344481384E+00
              0.182096619560342E+00
              0.441163961475763E+00
             -0.882848877983400E+00
              0.848040029078263E-01
              0.736417769700616E+00
              0.845782583618850E+00
             -0.735631045128222E+00
              0.564592867721894E-01
             -0.428995453499361E-01
             -0.360415157342223E+00
             -0.433968786410532E+00
             -0.199797514834771E+00
             -0.235761018096237E+00
              0.202332121775741E+00
              0.733483559655593E+00
             -0.572504578192864E+00
              0.141252953567971E+01
              0.581249375613454E+00
              0.466680656812438E+00
              0.648123057916522E+00
              0.416667072210777E+00
              0.629354821876540E+00
              0.963820260240908E+00
             -0.820193141590024E+00
              0.109793932885243E+01
             -0.198498450889657E+01
              0.543676805318250E+00
             -0.183334821386299E+01
              0.140730457474872E+01
              0.136024155545946E+01
             -0.147349300634382E+00
             -0.810003774299470E+00
             -0.753067228372584E+00
             -0.925265537381726E+00
             -0.114208546277739E+01
              0.961086823647073E+00
              0.747604973266685E+00
              0.424628998516243E+00
              0.430961355656676E+00
              0.802720153050489E+00
             -0.714444398782124E+00
             -0.255281354978491E+00
              0.928802814820173E+00
             -0.214769761968550E+00
              0.873841647411737E+00
              0.135719858663475E+01
             -0.679935018639750E-01
             -0.132204047957753E+01
              0.109227481556428E+00
              0.163618781741044E-01
             -0.182895515326537E+00
              0.528307195066882E-01
             -0.112354739130418E+01
             -0.133455205907868E+00
              0.235394022065604E+00
              0.262351040429783E+00
              0.874263677172946E+00
             -0.741567812724489E+00
              0.878627005130566E+00
             -0.663195708323626E+00
              0.478561636087194E+00
              0.760539002165798E+00
 
 BEEF-vdW xc energy contributions
           1 :   -12.1395862632471     
           2 :    9.99596739974741     
           3 :   -6.88294714739567     
           4 :    3.93216320384289     
           5 :   -1.72968679993322     
           6 :   0.420069525702640     
           7 :   0.121720515589011     
           8 :  -0.183346633481619     
           9 :   7.886951137569653E-002
          10 :  -2.891269892317538E-002
          11 :   9.306478925029893E-002
          12 :  -0.206086501570311     
          13 :   0.266067079833565     
          14 :  -0.217331532650171     
          15 :   7.135356878098165E-002
          16 :   0.111248462675977     
          17 :  -0.262451989711902     
          18 :   0.337481026647488     
          19 :  -0.329740249057032     
          20 :   0.261885318906891     
          21 :  -0.169316047620875     
          22 :   7.884004075792816E-002
          23 :  -3.767091647485898E-003
          24 :  -4.885938687960945E-002
          25 :   7.282095470986860E-002
          26 :  -7.119496483033672E-002
          27 :   5.687665918331319E-002
          28 :  -4.542690173263608E-002
          29 :   4.621681510738895E-002
          30 :  -5.776597819472684E-002
          31 :   -1.63931066424170     
          32 :   -1.03128533526229     

     Writing output data file ./pwscf.save/
 
     init_run     :     62.77s CPU     65.11s WALL (       1 calls)
     electrons    :    411.77s CPU    448.28s WALL (       1 calls)
     forces       :     23.93s CPU     25.89s WALL (       1 calls)

     Called by init_run:
     wfcinit      :      1.67s CPU      1.74s WALL (       1 calls)
     potinit      :     53.44s CPU     55.21s WALL (       1 calls)
     hinit0       :      6.25s CPU      6.36s WALL (       1 calls)

     Called by electrons:
     c_bands      :     56.37s CPU     57.16s WALL (      14 calls)
     sum_band     :     30.94s CPU     35.75s WALL (      14 calls)
     v_of_rho     :    270.35s CPU    294.31s WALL (      15 calls)
     newd         :     12.27s CPU     17.13s WALL (      15 calls)
     PAW_pot      :      1.88s CPU      1.89s WALL (      15 calls)
     mix_rho      :     88.64s CPU     92.67s WALL (      14 calls)
     vdW_kernel   :     33.46s CPU     33.46s WALL (       1 calls)

     Called by c_bands:
     init_us_2    :      1.06s CPU      1.08s WALL (      29 calls)
     regterg      :     53.95s CPU     54.72s WALL (      14 calls)

     Called by *egterg:
     rdiaghg      :      0.01s CPU      0.02s WALL (      76 calls)
     h_psi        :     49.74s CPU     49.77s WALL (      77 calls)
     s_psi        :      1.27s CPU      1.27s WALL (      77 calls)
     g_psi        :      0.16s CPU      0.16s WALL (      62 calls)

     Called by h_psi:
     h_psi:calbec :      1.03s CPU      1.04s WALL (      77 calls)
     vloc_psi     :     47.25s CPU     47.26s WALL (      77 calls)
     add_vuspsi   :      1.18s CPU      1.18s WALL (      77 calls)

     General routines
     calbec       :      1.34s CPU      1.34s WALL (      95 calls)
     fft          :    235.08s CPU    235.10s WALL (    2814 calls)
     ffts         :     38.20s CPU     38.20s WALL (     465 calls)
     fftw         :     46.24s CPU     46.24s WALL (     560 calls)
 
     Parallel routines
 
     PWSCF        :  16m17.90s CPU  17m50.89s WALL

 
   This run was terminated on:   9:54:50   4Jan2023            

=------------------------------------------------------------------------------=
   JOB DONE.
=------------------------------------------------------------------------------=
