
     Program PWSCF v.6.7MaX starts on 20May2022 at 11:54:38 

     This program is part of the open-source Quantum ESPRESSO suite
     for quantum simulation of materials; please cite
         "P. Giannozzi et al., J. Phys.:Condens. Matter 21 395502 (2009);
         "P. Giannozzi et al., J. Phys.:Condens. Matter 29 465901 (2017);
          URL http://www.quantum-espresso.org", 
     in publications or presentations arising from this work. More details at
     http://www.quantum-espresso.org/quote

     Parallel version (MPI), running on     1 processors

     MPI processes distributed on     1 nodes
     Reading input from cco-ensemble.in
Warning: card &CELL ignored
Warning: card / ignored

     Current dimensions of program PWSCF are:
     Max number of different atomic species (ntypx) = 10
     Max number of k-points (npk) =  40000
     Max angular momentum in pseudopotentials (lmaxx) =  3
     file C.pbe-n-kjpaw_psl.1.0.0.UPF: wavefunction(s)  2S 2P renormalized
     file O.pbe-nl-kjpaw_psl.1.0.0.UPF: wavefunction(s)  2S 2P renormalized

     **************************************************************************
     Initializing libbeef V0.1.2 with the BEEF-vdW functional.
     Citation: Wellendorff et al., PRB 85, 235149 (2012).
     **************************************************************************


     IMPORTANT: XC functional enforced from input :
     Exchange-correlation= BEEF-VDW
                           (   1   4  43  14   2   0   0)
     Any further DFT definition will be discarded
     Please, verify this is what you really want


     gamma-point specific algorithms are used

     Subspace diagonalization in iterative solution of the eigenvalue problem:
     a serial algorithm will be used

 
     G-vector sticks info
     --------------------
     sticks:   dense  smooth     PW     G-vecs:    dense   smooth      PW
     Sum       27297   27297   6817              3822323  3822323  477649
 


     bravais-lattice index     =            0
     lattice parameter (alat)  =      37.7998  a.u.
     unit-cell volume          =   60878.2849 (a.u.)^3
     number of atoms/cell      =            3
     number of atomic types    =            2
     number of electrons       =        14.00
     number of Kohn-Sham states=           11
     kinetic-energy cutoff     =      60.0000  Ry
     charge density cutoff     =     240.0000  Ry
     scf convergence threshold =      1.0E-06
     mixing beta               =       0.7000
     number of iterations used =            8  local-TF  mixing
     Exchange-correlation= BEEF-VDW
                           (   1   4  43  14   2   0   0)

     celldm(1)=  37.799813  celldm(2)=   0.000000  celldm(3)=   0.000000
     celldm(4)=   0.000000  celldm(5)=   0.000000  celldm(6)=   0.000000

     crystal axes: (cart. coord. in units of alat)
               a(1) = (   1.000000   0.000000   0.000000 )  
               a(2) = (   0.000000   0.999967   0.000000 )  
               a(3) = (   0.000000   0.000000   1.127217 )  

     reciprocal axes: (cart. coord. in units 2 pi/alat)
               b(1) = (  1.000000  0.000000  0.000000 )  
               b(2) = (  0.000000  1.000033  0.000000 )  
               b(3) = (  0.000000  0.000000  0.887140 )  


     PseudoPot. # 1 for C  read from file:
     /users/bkreitz1/quantum-espresso/potentials/C.pbe-n-kjpaw_psl.1.0.0.UPF
     MD5 check sum: a169b0ebad56f5ec0d79c4633f80bf22
     Pseudo is Projector augmented-wave + core cor, Zval =  4.0
     Generated using 'atomic' code by A. Dal Corso  v.6.7MaX
     Shape of augmentation charge: PSQ
     Using radial grid of 1073 points,  4 beta functions with: 
                l(1) =   0
                l(2) =   0
                l(3) =   1
                l(4) =   1
     Q(r) pseudized with 0 coefficients 


     PseudoPot. # 2 for O  read from file:
     /users/bkreitz1/quantum-espresso/potentials/O.pbe-nl-kjpaw_psl.1.0.0.UPF
     MD5 check sum: eef08af8b58d9ec80f8fdb78829eb7cf
     Pseudo is Projector augmented-wave + core cor, Zval =  6.0
     Generated using 'atomic' code by A. Dal Corso  v.6.7MaX
     Shape of augmentation charge: PSQ
     Using radial grid of 1095 points,  4 beta functions with: 
                l(1) =   0
                l(2) =   0
                l(3) =   1
                l(4) =   1
     Q(r) pseudized with 0 coefficients 


     atomic species   valence    mass     pseudopotential
        C              4.00    12.01100     C ( 1.00)
        O              6.00    15.99900     O ( 1.00)

     No symmetry found



   Cartesian axes

     site n.     atom                  positions (alat units)
         1           C   tau(   1) = (   0.4999275   0.4999291   0.4999779  )
         2           C   tau(   2) = (   0.4999667   0.4999768   0.5681568  )
         3           O   tau(   3) = (   0.5000686   0.5000371   0.6277670  )

     number of k points=     1  Gaussian smearing, width (Ry)=  0.0050
                       cart. coord. in units 2pi/alat
        k(    1) = (   0.0000000   0.0000000   0.0000000), wk =   2.0000000

     Dense  grid:  1911162 G-vectors     FFT dimensions: ( 192, 192, 216)

     Estimated max dynamical RAM per process >       2.84 GB

     Initial potential from superposition of free atoms

     starting charge   13.99992, renormalised to   14.00000

     negative rho (up, down):  1.560E-02 0.000E+00


     %%%%%%%%%%%%%%%%%%%%%%%%%%%%%%%%%%%%%%%%%%%%%%%%%%%%%%%%%%%%%%%%%%%%%%%%
     %                                                                      %
     % You are using vdW-DF, which was implemented by the Thonhauser group. %
     % Please cite the following two papers that made this development      %
     % possible and the two reviews that describe the various versions:     %
     %                                                                      %
     %   T. Thonhauser et al., PRL 115, 136402 (2015).                      %
     %   T. Thonhauser et al., PRB 76, 125112 (2007).                       %
     %   K. Berland et al., Rep. Prog. Phys. 78, 066501 (2015).             %
     %   D.C. Langreth et al., J. Phys.: Condens. Matter 21, 084203 (2009). %
     %                                                                      %
     %                                                                      %
     % If you are calculating the stress with vdW-DF, please also cite:     %
     %                                                                      %
     %   R. Sabatini et al., J. Phys.: Condens. Matter 24, 424209 (2012).   %
     %                                                                      %
     %%%%%%%%%%%%%%%%%%%%%%%%%%%%%%%%%%%%%%%%%%%%%%%%%%%%%%%%%%%%%%%%%%%%%%%%


     Starting wfcs are   12 randomized atomic wfcs
     Checking if some PAW data can be deallocated... 

     total cpu time spent up to now is       74.5 secs

     Self-consistent Calculation

     iteration #  1     ecut=    60.00 Ry     beta= 0.70
     Davidson diagonalization with overlap
     ethr =  1.00E-02,  avg # of iterations =  6.0

     negative rho (up, down):  1.407E-02 0.000E+00

     total cpu time spent up to now is      119.7 secs

     total energy              =     -80.01185061 Ry
     estimated scf accuracy    <       0.26453208 Ry

     iteration #  2     ecut=    60.00 Ry     beta= 0.70
     Davidson diagonalization with overlap
     ethr =  1.89E-03,  avg # of iterations =  2.0

     negative rho (up, down):  1.380E-02 0.000E+00

     total cpu time spent up to now is      162.3 secs

     total energy              =     -80.02821036 Ry
     estimated scf accuracy    <       0.06601163 Ry

     iteration #  3     ecut=    60.00 Ry     beta= 0.70
     Davidson diagonalization with overlap
     ethr =  4.72E-04,  avg # of iterations =  1.0

     negative rho (up, down):  1.534E-02 0.000E+00

     total cpu time spent up to now is      204.2 secs

     total energy              =     -80.02797899 Ry
     estimated scf accuracy    <       0.01513219 Ry

     iteration #  4     ecut=    60.00 Ry     beta= 0.70
     Davidson diagonalization with overlap
     ethr =  1.08E-04,  avg # of iterations =  4.0

     negative rho (up, down):  1.579E-02 0.000E+00

     total cpu time spent up to now is      249.3 secs

     total energy              =     -80.03010162 Ry
     estimated scf accuracy    <       0.00223672 Ry

     iteration #  5     ecut=    60.00 Ry     beta= 0.70
     Davidson diagonalization with overlap
     ethr =  1.60E-05,  avg # of iterations =  6.0

     negative rho (up, down):  1.859E-02 0.000E+00

     total cpu time spent up to now is      292.9 secs

     total energy              =     -80.03033794 Ry
     estimated scf accuracy    <       0.00115526 Ry

     iteration #  6     ecut=    60.00 Ry     beta= 0.70
     Davidson diagonalization with overlap
     ethr =  8.25E-06,  avg # of iterations =  5.0

     negative rho (up, down):  2.165E-02 0.000E+00

     total cpu time spent up to now is      336.7 secs

     total energy              =     -80.03035300 Ry
     estimated scf accuracy    <       0.00060807 Ry

     iteration #  7     ecut=    60.00 Ry     beta= 0.70
     Davidson diagonalization with overlap
     ethr =  4.34E-06,  avg # of iterations =  2.0

     negative rho (up, down):  3.843E-02 0.000E+00

     total cpu time spent up to now is      379.3 secs

     total energy              =     -80.03058950 Ry
     estimated scf accuracy    <       0.00034715 Ry

     iteration #  8     ecut=    60.00 Ry     beta= 0.70
     Davidson diagonalization with overlap
     ethr =  2.48E-06,  avg # of iterations =  5.0

     negative rho (up, down):  3.402E-02 0.000E+00

     total cpu time spent up to now is      424.3 secs

     total energy              =     -80.03051082 Ry
     estimated scf accuracy    <       0.00014572 Ry

     iteration #  9     ecut=    60.00 Ry     beta= 0.70
     Davidson diagonalization with overlap
     ethr =  1.04E-06,  avg # of iterations =  2.0

     negative rho (up, down):  2.810E-02 0.000E+00

     total cpu time spent up to now is      466.5 secs

     total energy              =     -80.03040626 Ry
     estimated scf accuracy    <       0.00006376 Ry

     iteration # 10     ecut=    60.00 Ry     beta= 0.70
     Davidson diagonalization with overlap
     ethr =  4.55E-07,  avg # of iterations =  4.0

     negative rho (up, down):  2.754E-02 0.000E+00

     total cpu time spent up to now is      509.9 secs

     total energy              =     -80.03039805 Ry
     estimated scf accuracy    <       0.00003805 Ry

     iteration # 11     ecut=    60.00 Ry     beta= 0.70
     Davidson diagonalization with overlap
     ethr =  2.72E-07,  avg # of iterations =  1.0

     negative rho (up, down):  2.462E-02 0.000E+00

     total cpu time spent up to now is      551.3 secs

     total energy              =     -80.03038035 Ry
     estimated scf accuracy    <       0.00001953 Ry

     iteration # 12     ecut=    60.00 Ry     beta= 0.70
     Davidson diagonalization with overlap
     ethr =  1.39E-07,  avg # of iterations =  2.0

     negative rho (up, down):  2.351E-02 0.000E+00

     total cpu time spent up to now is      595.3 secs

     total energy              =     -80.03038317 Ry
     estimated scf accuracy    <       0.00000919 Ry

     iteration # 13     ecut=    60.00 Ry     beta= 0.70
     Davidson diagonalization with overlap
     ethr =  6.56E-08,  avg # of iterations =  1.0

     negative rho (up, down):  2.168E-02 0.000E+00

     total cpu time spent up to now is      638.1 secs

     total energy              =     -80.03039099 Ry
     estimated scf accuracy    <       0.00000481 Ry

     iteration # 14     ecut=    60.00 Ry     beta= 0.70
     Davidson diagonalization with overlap
     ethr =  3.43E-08,  avg # of iterations =  1.0

     negative rho (up, down):  2.101E-02 0.000E+00

     total cpu time spent up to now is      680.9 secs

     total energy              =     -80.03039415 Ry
     estimated scf accuracy    <       0.00000208 Ry

     iteration # 15     ecut=    60.00 Ry     beta= 0.70
     Davidson diagonalization with overlap
     ethr =  1.49E-08,  avg # of iterations =  1.0

     negative rho (up, down):  2.051E-02 0.000E+00

     total cpu time spent up to now is      722.4 secs

     total energy              =     -80.03039636 Ry
     estimated scf accuracy    <       0.00000101 Ry

     iteration # 16     ecut=    60.00 Ry     beta= 0.70
     Davidson diagonalization with overlap
     ethr =  7.18E-09,  avg # of iterations =  1.0

     negative rho (up, down):  2.022E-02 0.000E+00

     total cpu time spent up to now is      754.2 secs

     End of self-consistent calculation

          k = 0.0000 0.0000 0.0000 (238825 PWs)   bands (ev):

   -29.3825 -19.9381 -14.0280 -12.2251 -12.2251  -8.5015  -6.9760  -6.9759
    -1.1453  -0.8203  -0.8203

     the Fermi energy is    -6.9760 ev

!    total energy              =     -80.03039708 Ry

     total all-electron energy =      -304.405486 Ry
     estimated scf accuracy    <       0.00000032 Ry
     smearing contrib. (-TS)   =      -0.00564190 Ry
     internal energy E=F+TS    =     -80.02475519 Ry

     The total energy is F=E-TS. E is the sum of the following terms:
     one-electron contribution =    -142.95478016 Ry
     hartree contribution      =      73.32633666 Ry
     xc contribution           =     -16.74335140 Ry
     ewald contribution        =      29.62537956 Ry
     one-center paw contrib.   =     -23.27833985 Ry

     convergence has been achieved in  16 iterations

     negative rho (up, down):  2.022E-02 0.000E+00

     Forces acting on atoms (cartesian axes, Ry/au):

     atom    1 type  1   force =     0.00006773    0.00008943    0.00361767
     atom    2 type  1   force =     0.00013972    0.00001553    0.02859216
     atom    3 type  2   force =    -0.00020745   -0.00010496   -0.03220983

     Total force =     0.043222     Total SCF correction =     0.000387

     negative rho (up, down):  2.022E-02 0.000E+00

     negative rho (up, down):  2.022E-02 0.000E+00

     negative rho (up, down):  2.022E-02 0.000E+00

     negative rho (up, down):  2.022E-02 0.000E+00

     negative rho (up, down):  2.022E-02 0.000E+00

     negative rho (up, down):  2.022E-02 0.000E+00

     negative rho (up, down):  2.022E-02 0.000E+00

     negative rho (up, down):  2.022E-02 0.000E+00

     negative rho (up, down):  2.022E-02 0.000E+00

     negative rho (up, down):  2.022E-02 0.000E+00

     negative rho (up, down):  2.022E-02 0.000E+00

     negative rho (up, down):  2.022E-02 0.000E+00

     negative rho (up, down):  2.022E-02 0.000E+00

     negative rho (up, down):  2.022E-02 0.000E+00

     negative rho (up, down):  2.022E-02 0.000E+00

     negative rho (up, down):  2.022E-02 0.000E+00

     negative rho (up, down):  2.022E-02 0.000E+00

     negative rho (up, down):  2.022E-02 0.000E+00

     negative rho (up, down):  2.022E-02 0.000E+00

     negative rho (up, down):  2.022E-02 0.000E+00

     negative rho (up, down):  2.022E-02 0.000E+00

     negative rho (up, down):  2.022E-02 0.000E+00

     negative rho (up, down):  2.022E-02 0.000E+00

     negative rho (up, down):  2.022E-02 0.000E+00

     negative rho (up, down):  2.022E-02 0.000E+00

     negative rho (up, down):  2.022E-02 0.000E+00

     negative rho (up, down):  2.022E-02 0.000E+00

     negative rho (up, down):  2.022E-02 0.000E+00

     negative rho (up, down):  2.022E-02 0.000E+00

     negative rho (up, down):  2.022E-02 0.000E+00

     negative rho (up, down):  2.022E-02 0.000E+00

     negative rho (up, down):  2.022E-02 0.000E+00

     negative rho (up, down):  2.022E-02 0.000E+00

     negative rho (up, down):  2.022E-02 0.000E+00
 BEEFens 2000 ensemble energies
             -0.125031801248413E+01
             -0.523974198128614E-01
             -0.256554913291951E+00
              0.871069765277996E+00
             -0.409053134762820E+00
             -0.305367606171976E+00
             -0.923086240411440E+00
             -0.189766871048332E+01
             -0.678835072094460E+00
             -0.748710826479044E+00
             -0.715306985290985E+00
              0.113898378942991E+00
              0.602371457136388E-01
             -0.908681206105166E-01
              0.790830020521192E-01
              0.920009515810836E+00
             -0.391509703757444E+00
             -0.201132749997997E+00
              0.460866429561126E+00
             -0.215870419396292E+01
              0.111309919132257E+01
             -0.382270841059688E+00
             -0.125257110495657E+00
             -0.181394055410807E+00
              0.429083089751767E-01
             -0.110706856710651E+00
              0.171753594327346E+01
             -0.453474749521982E+00
             -0.155712042549599E+00
             -0.109764602227269E+01
              0.135380924854114E+01
             -0.907560697918948E-01
             -0.819440239103118E+00
              0.362957390363899E+00
             -0.636472174371017E-01
              0.557060789661660E+00
              0.317957832937559E-01
              0.149013569386991E-02
              0.716093480010883E+00
             -0.195650599755511E+01
              0.106668671780123E+01
              0.228890855833783E+00
             -0.239766360406730E+00
             -0.586791895576720E+00
              0.234459701376873E+00
             -0.353306765002687E+00
              0.992083148490918E+00
              0.695168790235142E+00
             -0.378728258958008E+00
             -0.631534724829489E+00
             -0.598656455189776E+00
             -0.719044511244894E+00
              0.409568109598027E+00
             -0.102671822706907E+01
              0.316962736238622E+00
              0.118611566233036E+01
              0.146939090800901E+01
              0.625078671452887E+00
              0.327283047786528E+00
              0.621153430695838E+00
              0.177634817283245E+01
              0.336030407965604E+00
             -0.107995338642927E+01
             -0.183689278334866E+00
             -0.569138011799202E+00
              0.121727647959973E+01
             -0.141233283301494E+01
             -0.115023593230290E+01
             -0.647480086801511E+00
             -0.357047520971252E+00
             -0.769844146598988E+00
              0.540112712495989E+00
              0.259884580422270E+00
              0.317025996808981E+00
             -0.743629202583643E+00
             -0.694267285633819E+00
             -0.114789180563514E+01
              0.629410149704597E+00
             -0.678297283836396E+00
              0.605445026660292E+00
             -0.152350053940419E+00
             -0.550409029379558E+00
             -0.100330515975609E+01
             -0.299511140306830E+00
             -0.329766001323668E+00
             -0.302791499352072E+00
              0.749425006082551E+00
              0.150957900689846E+01
             -0.895982719124765E+00
             -0.156005351567115E+01
             -0.353785687502246E+00
              0.213550753463560E+01
             -0.108580635607149E+01
              0.602461867636751E+00
             -0.227845204848686E+00
             -0.115489647158330E+01
              0.531137892102373E+00
              0.605864265604761E+00
             -0.289043904063070E+00
              0.557627924154627E+00
             -0.486247029973722E+00
             -0.118701740991336E+01
              0.196025843500203E+01
              0.900614365173389E+00
              0.421164365556447E+00
              0.256600942433721E+00
              0.464198677649376E+00
              0.158177698330795E+01
             -0.513380740980920E+00
              0.484498871239192E-01
             -0.269865765516725E+01
              0.350788186311667E+00
             -0.129400251376477E+01
              0.241903577814356E+00
              0.422254204383174E+00
             -0.717229691818821E+00
             -0.980679113607484E+00
              0.583633365223477E-01
             -0.595657407193191E+00
              0.866508804560869E+00
             -0.886907443465273E+00
             -0.165617621209670E+00
             -0.747437687345115E+00
             -0.692742448821129E-01
              0.714686868149941E-01
              0.431577582546542E+00
             -0.741516695550004E-03
             -0.120528274090900E+00
              0.129191444620216E+01
              0.179469228761593E+01
              0.965711457467426E+00
              0.128509937743812E+01
             -0.257155609242780E+00
              0.175619741568139E+00
              0.101058892689047E+01
              0.815262386266422E-01
             -0.148852745895899E+01
             -0.844414675513914E+00
             -0.948540345577074E+00
             -0.573442069801281E+00
              0.488560253579745E+00
             -0.237996475215476E+01
             -0.249963701187646E+00
              0.908061202508451E+00
             -0.779518818667900E+00
             -0.583040688576908E+00
              0.111998815191183E+01
              0.963587186407310E+00
             -0.557301106111695E+00
              0.629977395504426E+00
             -0.479068781594600E+00
              0.734275577379427E+00
              0.133809335799729E+00
              0.201058367798975E+00
             -0.160379581300839E+01
             -0.935522898906738E+00
             -0.158177862864150E+00
             -0.606259375093491E-01
             -0.828449194102317E+00
              0.216615218233277E+01
             -0.231879678591964E+00
             -0.517604360217571E+00
              0.761379819597408E+00
             -0.875392794077319E+00
             -0.723459266576467E+00
              0.630533576966339E+00
              0.233988766086388E+00
              0.194634918430243E+00
              0.309821232296879E+00
             -0.204293315140918E+00
              0.198015323585548E+00
              0.113870020399177E+01
             -0.527904077970797E+00
              0.428643932431734E+00
              0.172984274600132E+01
              0.616498695678557E+00
             -0.883668626691207E-01
             -0.403527857924009E+00
              0.303638633100027E+01
             -0.481920499275533E+00
              0.757324056225745E+00
              0.595484494038176E+00
              0.549305139834667E+00
              0.181348175910506E+01
              0.897408506474630E+00
             -0.104137716812972E+00
              0.487853960016219E+00
              0.101310298174205E+01
              0.759117116533767E+00
             -0.119351681304930E+01
              0.184125912108539E+01
             -0.167036105503375E+01
             -0.218424401031494E+00
              0.109821147242725E+01
              0.324729746519422E+00
              0.115023125359658E+00
              0.537287489844746E+00
              0.307585946499065E+00
              0.638974968618654E+00
             -0.122741505958739E+01
              0.794114672711519E-01
             -0.453800435135635E+00
             -0.131562247297003E+00
             -0.677885292023692E-01
             -0.250598380259923E+00
             -0.127287757462939E+00
              0.161234519192085E+01
             -0.992692403082653E-01
             -0.561308866773757E+00
             -0.217782114023179E-01
              0.268806056368367E+00
             -0.125698103677369E+01
             -0.107612847280426E+01
             -0.661206637546117E+00
             -0.123246163248050E+01
             -0.370862887128127E+00
             -0.782124314728423E+00
              0.366779272111112E+00
              0.358685258810936E-01
             -0.249242114045263E+00
             -0.157342457763981E+00
              0.961644581776842E-01
             -0.266817917992507E+00
              0.126643745231942E+01
             -0.170874646284240E+01
             -0.267456289796804E+00
             -0.262759921613879E+00
              0.295932028611690E+00
              0.411946691343200E+00
             -0.998849251295312E+00
             -0.248381951384864E+00
              0.861108797798701E+00
             -0.371595399403777E+00
              0.255970466831371E+00
              0.656915296767838E+00
             -0.223033730919777E-01
              0.225145327113409E+01
             -0.226912611898438E+00
             -0.673567391159441E+00
              0.126148782731015E-01
             -0.539898440057784E+00
              0.106279688276518E+01
             -0.930185925597014E+00
              0.260960023990297E+00
              0.993134649682379E+00
             -0.250337598508619E+00
              0.230582955486101E+01
              0.249970692589016E+01
             -0.137732913665125E+01
              0.112318820130331E+01
              0.452856681245960E+00
             -0.109919825625524E+01
              0.338788114756868E+00
              0.827567568945159E+00
              0.905312277473236E+00
              0.939369375717254E-01
              0.331079516856860E+00
              0.145285089575071E+01
             -0.447208921611193E+00
              0.182230083761766E+00
              0.133422986912526E+01
             -0.709690608378911E+00
             -0.460852606764751E+00
              0.115253137966231E+01
              0.589558571342436E+00
              0.150756932844266E+01
              0.658123235157921E+00
              0.252387731965419E+00
              0.482029522657877E+00
              0.826628380234285E+00
             -0.101763135732222E+01
              0.139096866012415E+00
              0.535170495930788E+00
              0.216879109294364E+00
              0.469188164268330E+00
             -0.120855657914019E+01
              0.632122709251405E+00
             -0.850675265615513E+00
             -0.599517758108348E+00
              0.373591377714913E+00
             -0.167399828954785E+00
              0.116702940828857E+01
             -0.293554130096357E+00
              0.577986306918721E+00
              0.584807378149410E+00
              0.150394848892609E+01
              0.102124898167555E+01
              0.993886940513897E+00
             -0.633521490559463E-01
             -0.224091890031132E+00
             -0.572413655531568E+00
              0.159844263367221E+01
              0.160954378791555E+01
              0.770472498855104E+00
             -0.554721725464093E+00
              0.967754241651996E+00
              0.177782958372585E-02
              0.340964698275311E+00
              0.134915971348176E+01
             -0.443479341753705E-01
             -0.185186099218845E+00
             -0.407890740984115E+00
             -0.118540726231288E+01
              0.189255519353479E+01
              0.990337957170732E+00
             -0.125515298979898E+01
             -0.429033111384605E+00
              0.501694460571308E+00
             -0.207290560332321E+00
              0.128700494537587E+01
              0.293614899320222E+00
              0.159223952295673E+01
              0.603957912514392E+00
             -0.474319993166457E+00
              0.371173746957533E+00
             -0.134109843311089E+00
             -0.509379384281607E+00
              0.344461964070720E+00
              0.317385266133345E+00
              0.175801241937039E+01
              0.149995058668462E+01
              0.110359409348455E+01
              0.131741728428059E+01
              0.127181166588691E+00
             -0.504042526788165E+00
              0.263008034524056E+00
             -0.644221983356870E+00
             -0.110117622634875E+01
             -0.111345943735159E+01
             -0.622975036384446E+00
             -0.211175044794925E+01
             -0.723440473983985E+00
             -0.169384286223319E+01
              0.409068838770751E+00
             -0.877262562485738E+00
              0.984399872905778E+00
             -0.192340858033394E+01
             -0.584681599238064E+00
              0.769286906637670E+00
              0.434303179089197E+00
             -0.177564487519184E+01
              0.105883576023314E+01
             -0.543776957959401E+00
              0.107956542801561E+01
             -0.540580193274948E+00
             -0.154549224303885E+01
              0.341756938033405E+00
             -0.129046736902855E+01
             -0.744939159002325E-01
             -0.188062372297475E-01
              0.817348746328496E+00
              0.245617865069133E+01
             -0.845867380650006E+00
             -0.733059312504385E+00
             -0.118991395807059E+00
             -0.164323500451826E+00
             -0.156984935758333E+01
             -0.109986723671001E+01
              0.976173871768329E+00
             -0.357280611372410E+00
              0.429216521573748E+00
             -0.963557842706240E+00
             -0.310663870910553E+00
             -0.807109022052229E+00
              0.947109621273579E+00
              0.258718441286957E+00
             -0.474470393837285E+00
             -0.342080757141094E+00
              0.261981599101390E+00
             -0.151501857220919E+00
              0.792196204622744E+00
             -0.520307405293774E+00
              0.203477420817508E+00
              0.662718821394334E+00
              0.259755960265011E+00
             -0.451295319683024E+00
              0.303422175935049E+01
              0.115015121251391E+01
              0.188736064393591E+00
              0.126496378889239E+00
             -0.118379971456082E+01
              0.646513237039270E+00
             -0.153495158085748E+01
             -0.661467227890245E+00
             -0.117014621550499E+01
             -0.349736694163061E+00
              0.114825406378371E+01
             -0.113907587496424E+01
              0.509398822767955E+00
             -0.751689398701423E-01
              0.301433695246702E-01
             -0.612977004283690E+00
             -0.814058898216133E+00
             -0.103405253069607E+00
             -0.671752587088674E+00
             -0.442969762048024E+00
             -0.771777023701780E+00
             -0.112587675603847E+00
             -0.627456111128217E+00
             -0.957039723570802E+00
              0.423174942454617E+00
             -0.241475276933393E+00
              0.468386737442342E+00
              0.169023295841532E+00
             -0.147836375887995E+01
             -0.100389800117182E+01
             -0.958171212776862E+00
              0.631395151883780E+00
             -0.123467706747289E+00
             -0.121386376112597E+01
              0.110739769303274E+01
             -0.825840345188549E+00
              0.114425979286705E+01
             -0.603855874956385E+00
             -0.969446117950477E+00
              0.490904049672574E+00
             -0.142281507647506E+01
             -0.631925588625843E+00
              0.114705233638039E+01
              0.386590158647993E+00
             -0.843556107277305E+00
              0.108763725199328E+01
             -0.315029196256260E+00
             -0.732899458924974E+00
             -0.589328583179242E+00
             -0.101551673943497E+01
              0.492440956564566E+00
             -0.170248008133984E+01
             -0.150654939087482E+01
             -0.157168678190617E+00
             -0.569145238013737E+00
             -0.116961688823958E+01
              0.149446242479275E+01
              0.269320306753303E+01
             -0.440322431501829E+00
             -0.720072573809771E-01
             -0.118215922994490E+01
              0.130276962315733E+01
              0.422606170025809E+00
             -0.396058203622161E+00
             -0.707960294744460E+00
              0.292778270274082E+00
             -0.117664960178552E+01
             -0.231233979521798E+00
             -0.169282558494516E+01
              0.665047020924485E+00
              0.219246297732562E+00
             -0.100928349286605E+00
             -0.215631115988076E+00
             -0.802764384394273E+00
             -0.251867337515270E+00
              0.265977137929908E+01
             -0.315772824933401E+00
             -0.942860397882446E+00
             -0.135397826407012E+01
              0.273427039032825E+00
             -0.743894117659668E+00
              0.194092481528656E+00
              0.651760252161665E+00
              0.889422827650082E-01
              0.689065852544279E+00
              0.341348531786964E+00
              0.114912333469949E+01
              0.501099690279750E+00
             -0.710187632875401E+00
              0.105014983538684E+01
              0.668532675964001E+00
              0.246057636394350E+00
              0.726487138111108E+00
             -0.603529560321800E+00
              0.139768465433593E+01
              0.497004715776578E+00
             -0.679630408850785E+00
             -0.100782341839119E+00
             -0.326121221699234E+00
              0.320980121060630E+00
             -0.517219858385846E+00
             -0.216070114796276E+00
             -0.251971869336117E+00
              0.160575863521804E+01
              0.114101248147198E+01
             -0.127851236469979E+01
             -0.143410870351969E+00
             -0.991726191997548E+00
             -0.278970203604208E+00
             -0.403345703755086E+00
              0.218159482331851E+00
             -0.711873169264184E-01
             -0.551661018506241E+00
              0.334067654698865E+00
             -0.182042785704143E+00
             -0.144549440021913E+00
              0.171659645694873E+01
              0.301503489035314E+00
             -0.163040508346250E+01
             -0.759053159036958E+00
              0.186539144160612E+01
              0.465479235742521E+00
             -0.161288273921601E+00
              0.215410488800305E+01
             -0.342715000707211E+00
             -0.158531216400961E+00
             -0.218306942770308E+00
              0.308344656131244E+00
              0.640874772009464E+00
              0.445959195246133E-01
              0.550549906887682E+00
             -0.229332952847176E+00
             -0.756312870639817E+00
             -0.775770664478566E+00
             -0.948765746245892E+00
              0.803753701105174E+00
              0.285202568056949E+00
              0.736974493560868E+00
              0.308933510735303E+00
              0.177224356828225E+01
              0.394861530503438E+00
             -0.151470669410060E+01
             -0.649435495865312E+00
              0.678729563612703E-01
             -0.546712965892477E+00
              0.124298016667234E+01
             -0.313818301321803E+00
              0.348405598540371E+00
              0.107401870144035E+01
             -0.158330929882788E+01
              0.290047602608231E+01
              0.378283836761431E+00
              0.466615100336126E+00
              0.737422688826860E+00
              0.712070185224487E-01
             -0.458431661561223E-01
              0.646643221630935E+00
             -0.677425886310286E+00
              0.169741342134492E+01
              0.147428797018386E+01
             -0.765338424988306E+00
              0.323472736078926E+00
              0.141723308845838E+01
             -0.425080311126315E+00
              0.392333096262201E+00
              0.672330821297670E+00
              0.825648018386687E+00
             -0.146327400164950E+01
             -0.127169184163051E+00
             -0.543433794547580E+00
             -0.116605639677682E+00
             -0.117611567702846E+00
              0.112302890171994E+00
             -0.269632491118291E+00
             -0.579403711971580E+00
              0.300304521749463E+00
              0.130907024366770E+00
              0.104291204086532E+01
             -0.902689528852082E+00
              0.872239069576944E+00
              0.978774928326583E+00
             -0.201348072300589E+00
              0.150561148540709E+01
             -0.132180539838376E+01
             -0.203966820083322E+01
             -0.151802426651318E+00
             -0.145825465442035E+00
             -0.511464604359624E-02
              0.152581704375264E+01
             -0.337941428586301E-01
              0.829493781812317E+00
              0.114494136859988E+01
              0.771096717139006E+00
             -0.128214896949785E+00
              0.118778176802400E+01
             -0.334801289543093E+00
             -0.752145925303298E+00
             -0.727356940052726E+00
              0.188658781272064E+00
              0.709754026270022E+00
             -0.594874193902823E-01
              0.679752818257063E+00
             -0.627691390151952E-02
              0.111442742695582E+01
              0.345613576635136E+00
              0.156629718284688E+00
              0.153541199129901E-01
              0.592041314637568E+00
              0.803958774918494E+00
              0.305179024009704E+00
             -0.648481327935837E-01
             -0.105712637103807E+01
              0.598229526522185E+00
              0.410725708157822E+00
              0.661176260463286E+00
              0.600112005261685E+00
              0.708114110965121E+00
             -0.177451102452625E+00
              0.647134960165863E+00
             -0.557343661482847E+00
             -0.286548132965301E-01
             -0.104512844024666E+01
             -0.684703058463330E+00
              0.844847546065517E+00
             -0.173366130379899E+01
              0.490338824556601E+00
              0.276850839560401E+00
              0.168153561557805E+01
             -0.291743395252380E+00
              0.631391156258002E+00
             -0.226952904491904E+00
             -0.975717082606292E+00
             -0.131488051191085E+01
             -0.280183838443985E+00
             -0.177807532726867E+01
              0.181768212702085E+00
             -0.402904316959350E+00
              0.631658391701281E+00
              0.455682116025017E+00
             -0.553721418356264E+00
             -0.566776362949042E+00
              0.839403830828496E+00
             -0.111783369987073E+01
             -0.260221700356141E+00
             -0.332612066197783E+00
              0.517468820932952E+00
              0.674828633930753E-01
              0.884298835613833E-01
             -0.316855393692768E+00
              0.106675663713849E+01
             -0.113731915767133E+01
              0.146879698047552E+00
              0.117782203526339E+01
             -0.710919860774403E+00
              0.619086018987174E-01
              0.225485576295377E-01
             -0.129845664729027E+01
             -0.782998637441255E+00
             -0.528454890703255E-01
              0.603034251229001E+00
              0.674593602142836E+00
              0.793502875712431E-01
             -0.234630163349680E+00
              0.367107760038638E+00
             -0.814436303753482E+00
             -0.812873488565051E-01
             -0.101905696776739E+01
             -0.508472870028942E+00
              0.978996798831004E+00
             -0.597155887551378E+00
              0.135997453883432E+01
             -0.442173063361985E+00
              0.667614920128427E+00
              0.501464307434073E+00
             -0.117513915409388E+01
             -0.515414285067287E+00
              0.185421673817084E+00
             -0.814384253307663E+00
             -0.806085368186519E+00
             -0.174916471060579E+01
             -0.109675736621045E+01
             -0.983954125471543E+00
             -0.886622714457888E+00
              0.186903847827380E-01
              0.462803167973579E+00
              0.188535254652293E+00
              0.529864592767635E+00
             -0.115540428830262E+01
              0.254346975479748E+00
              0.516747245269246E+00
             -0.134673731103929E+01
             -0.112959048428415E+01
             -0.761107283204812E+00
             -0.626719017154176E+00
              0.303448717612512E+00
             -0.551421096048834E-01
             -0.846517694345292E+00
              0.576722038227531E+00
             -0.437916601540837E+00
              0.102175960306047E+01
             -0.173371772157476E+01
              0.123891579507800E+01
             -0.200804047230521E+00
             -0.844148995529351E+00
             -0.558816406494233E+00
             -0.156895492747791E-01
              0.957874919623502E+00
             -0.138056995837981E+01
             -0.261330009327081E+00
             -0.329932162870475E+00
              0.824286680797337E+00
              0.157197545911469E+01
             -0.195862202694205E+01
              0.181221005699884E+01
              0.782312340175554E+00
             -0.150160907299617E+01
             -0.628102733283395E+00
              0.154298150762811E+01
              0.112145756410601E+01
             -0.392954234509453E+00
             -0.133165704918770E+00
              0.344143552834447E+00
              0.151905194587776E+01
             -0.115576080514869E+01
              0.269320076280327E+00
             -0.153981823279876E+00
              0.529518383860845E+00
             -0.138995579735692E+01
             -0.664397108913259E-01
             -0.546391514051983E+00
              0.949120155692695E+00
              0.758080487534521E+00
             -0.174137168886340E+01
             -0.939915306294743E+00
             -0.409989433041099E+00
             -0.847402322899233E+00
             -0.262752498928280E+00
             -0.372153499415605E+00
              0.892175496914475E+00
              0.860833269614371E+00
             -0.529255239389306E-01
             -0.873218781089756E+00
             -0.167255085922766E+01
              0.977133223145819E+00
             -0.921038023560691E+00
             -0.712389333970316E+00
              0.141994594759972E+00
             -0.723685121407075E+00
             -0.804697016612565E+00
             -0.597185703819071E+00
             -0.978802618223867E+00
             -0.482126580237732E+00
             -0.987281980824484E+00
              0.110098314947586E+01
              0.117948272649531E+01
             -0.195176878549855E+00
             -0.413554706411251E+00
              0.611199185047830E-01
              0.822499112231906E+00
             -0.168500972996179E+01
             -0.471375054361858E+00
              0.985132584070817E+00
              0.138142598006957E+01
             -0.213394889274292E+00
              0.214224225915887E+00
              0.103496180880937E+01
              0.286039796748097E+00
              0.183941048957426E-02
             -0.768950738131052E+00
              0.287386006419441E+00
             -0.650055545429464E+00
             -0.183564830589020E+00
             -0.416865743868021E+00
             -0.289412189691038E+00
              0.456508387819343E+00
              0.154692792495460E+01
             -0.126182544253048E+00
              0.398020868310147E-01
             -0.179952769448516E+01
             -0.349553571229942E+00
             -0.720033424036385E+00
              0.139769117466200E-01
             -0.912145232139496E+00
              0.174771761505817E+01
              0.170892140050151E+01
              0.364029950531297E+00
             -0.426830073120564E+00
              0.343143973029956E+00
              0.423387088782622E+00
             -0.905726455572177E+00
             -0.168469569006042E+00
              0.358070159106850E+00
              0.244785362906719E+00
              0.101328070278592E+01
              0.796724597381966E+00
             -0.419404747741168E+00
              0.444940731072430E+00
             -0.190682629954972E+01
             -0.586040923958095E-01
              0.176281716330562E+01
              0.346897797692786E+00
             -0.439606046006613E-01
              0.535605944331531E+00
             -0.473843025137519E+00
              0.173746740010759E+01
             -0.371117710624826E+00
              0.154447897519388E+01
              0.742554559479321E+00
             -0.855210610866900E+00
              0.646801304286298E+00
             -0.556024829927016E+00
             -0.132635777202256E+01
             -0.145727489576680E+00
             -0.107777754474727E+01
             -0.103249227478169E+01
             -0.389050450762518E-01
              0.717020071291339E+00
             -0.246030973412679E+00
             -0.618587696212279E+00
              0.135275421409261E+00
             -0.130996504298680E+01
             -0.820745586666191E-01
             -0.170341189119527E+01
              0.106105918661054E+01
             -0.876130676831215E-01
             -0.967768520483037E+00
             -0.329919081254388E+00
              0.337286828646757E+00
             -0.726250539528746E+00
             -0.882858786703056E+00
              0.177164247425710E+01
             -0.538111122215621E+00
             -0.770950144815519E+00
              0.605048773735043E+00
             -0.390758129064935E+00
              0.110266345755664E+01
             -0.244259297743490E-01
              0.727751758127786E-01
              0.213017558732739E+01
             -0.201089432754940E+00
             -0.747647254491405E+00
             -0.912795043300434E+00
             -0.102841762647006E+01
             -0.724027211669233E+00
              0.588469134231936E+00
              0.571016592735612E+00
              0.547152285464536E+00
              0.147553967095996E+01
              0.102647297398711E+00
              0.424187502589638E+00
             -0.116526303379058E+01
              0.371326662920373E-01
             -0.336727212067367E+00
             -0.528895259928920E+00
             -0.104047370614825E+00
              0.657554270926742E+00
              0.749561590254997E+00
             -0.396854023496764E-01
              0.239464866297093E+00
              0.545495318894420E+00
              0.695790383584674E+00
             -0.464270986048566E+00
             -0.195783412430435E+00
              0.164763600104108E-01
             -0.514963831718262E+00
             -0.858678405767748E-01
             -0.742772990672008E+00
              0.153393997857919E+01
              0.120950055993450E+01
             -0.326554615008394E+00
              0.298360581499442E+00
             -0.993629973299076E-01
             -0.586988526619528E+00
              0.726434167948898E+00
             -0.179828633681998E+00
              0.722614514160517E+00
             -0.955010079664934E+00
              0.353533058159550E+00
             -0.156394202253407E+00
             -0.106807163193423E+01
             -0.476408826490161E+00
              0.474082677889604E+00
             -0.189958649939127E+01
              0.761506638049076E+00
              0.932828808605205E+00
             -0.186315632493818E+00
             -0.140722073334527E+00
             -0.715920047359528E-01
              0.532731073907440E+00
             -0.663216490664820E+00
              0.611125269833603E+00
              0.630636351628207E+00
             -0.182743729823555E+01
             -0.716634747881169E+00
              0.465881141591322E+00
             -0.250000065314011E+00
              0.926885229715271E+00
             -0.121000473847494E+01
             -0.158631839542430E+00
             -0.788629744869339E+00
             -0.254312642628178E+01
              0.154655989023761E+01
             -0.118823058118611E+01
             -0.129825652500940E+01
              0.120480199774830E+00
              0.253906818246579E+01
              0.124162390871317E+00
             -0.600469101179673E+00
             -0.179037102549540E-01
             -0.945499163515771E-01
             -0.171813352193318E+01
             -0.110222597291590E+01
              0.166412037270022E+01
             -0.206543480019790E+00
             -0.725558193448643E+00
              0.972018706300556E+00
             -0.648457876163145E+00
              0.678180185138123E+00
              0.962616620003060E+00
             -0.108159709919002E+01
             -0.551074304359521E+00
             -0.637520957115109E+00
             -0.325986868876731E+00
             -0.390589801811675E+00
             -0.327336182098081E+00
              0.385645413148874E+00
             -0.691812664208359E+00
              0.555522713843054E+00
              0.109779814690146E+01
             -0.174770020816363E+00
             -0.393236546738051E+00
              0.289945309540581E+00
              0.108996530145299E+01
              0.107043895883647E+01
              0.169578179411317E+00
             -0.180732910759627E+00
             -0.197578141845762E+00
             -0.105091920700101E+01
              0.790602869800233E+00
             -0.496571163363717E+00
              0.438172102903417E+00
             -0.263903174220443E+00
              0.525048133303754E+00
              0.343476822234239E+00
             -0.160822009243325E+01
             -0.506989264742879E+00
             -0.155073662989874E+01
             -0.777616000071694E+00
              0.103725338764689E+00
             -0.387134463972417E+00
              0.681002793416697E+00
             -0.555807781475798E+00
              0.556605759697031E-01
              0.144666206258213E+00
              0.141973617641176E+01
              0.717433980906874E+00
             -0.623051784300741E+00
             -0.177908342826050E-01
              0.288912090197735E+00
              0.735908514230713E+00
             -0.924083801586750E-02
              0.109388745263097E+01
              0.545666110741935E+00
              0.177754187870785E+01
              0.768966399910225E-01
              0.124060281444683E+01
             -0.541941615188010E+00
             -0.781850259796649E+00
              0.706188512590948E-01
              0.202173781038727E+00
              0.480910467326829E+00
             -0.342527537296926E+00
             -0.239472308499234E+00
              0.458720413596780E+00
             -0.918968972435572E+00
             -0.115767954363213E+01
              0.156210548480687E+01
             -0.121675286173502E+00
             -0.746662074525435E+00
             -0.911054739033430E-01
             -0.278791091590257E+00
              0.819907538920759E+00
              0.720768301910470E+00
             -0.391943834521793E+00
             -0.788886633768460E-02
             -0.512699047519256E+00
             -0.689430433187670E+00
             -0.498566444724629E+00
             -0.193299708492564E+01
             -0.295619511208400E-02
             -0.127733243179202E+01
             -0.115931383242633E+01
             -0.753391600962400E+00
              0.427722961769581E+00
             -0.766358953612943E+00
              0.467023205482644E+00
             -0.124533529134415E+01
             -0.651391294680703E-02
             -0.837275252481522E+00
              0.146237711231559E+00
              0.166887009502046E+00
              0.658749469328839E+00
             -0.398696217478768E+00
             -0.359212871862265E+00
              0.602773492474449E+00
              0.117047087884610E+01
              0.639277950811874E+00
              0.214669274310889E+00
             -0.144572571242037E+01
             -0.289836986976178E+00
             -0.548650405535065E+00
             -0.121993636320599E+01
              0.841083864052182E+00
             -0.670453925595274E+00
             -0.149292978916677E+00
             -0.513875745932468E+00
             -0.197146380070106E+01
              0.109161265698647E+01
             -0.350073555891438E+00
              0.765060109561482E+00
             -0.145745520523362E+01
              0.128017928094214E+01
              0.115048138493125E+00
             -0.525086380637988E+00
              0.177235361646974E+00
             -0.415492453968277E+00
             -0.125735519010520E+01
              0.339539989779277E+00
              0.715079868790043E+00
             -0.128782993371015E-01
             -0.679461817083046E+00
             -0.290952439062514E+00
              0.391880872867723E+00
              0.713056992178613E+00
              0.122681037432204E+01
              0.446887577523524E+00
             -0.461078326441815E+00
              0.192417273426760E+01
              0.460841292973576E+00
              0.903418917345052E+00
             -0.320452575714446E+00
              0.584611406143603E+00
              0.446012036529639E+00
             -0.120789056213347E+01
             -0.433667821332766E+00
             -0.788681163463710E+00
             -0.773518279651845E+00
             -0.222401250103275E+00
             -0.196260172455025E+00
             -0.870815993582154E+00
             -0.219774321720375E+01
             -0.540370350996622E+00
              0.290029755869710E+00
              0.127869728577314E+00
              0.280835898002191E+00
              0.836242948233794E+00
              0.250069085473670E+00
              0.623053569235019E+00
             -0.862194754147172E+00
              0.850968615906433E+00
             -0.818256219411881E+00
             -0.135220565816912E+01
              0.391694084717955E+00
             -0.815517846223640E+00
             -0.801573685023038E+00
             -0.314072545211721E+01
             -0.153207284384535E+00
              0.165065707835446E+01
              0.817781803092172E+00
             -0.193182257749116E+00
             -0.207567250529324E+00
              0.810365731972031E+00
              0.126839294758463E+01
             -0.760906286520878E+00
             -0.257696879305529E+00
             -0.703400853884605E+00
             -0.664968275901234E+00
             -0.605687062934694E+00
              0.240808071144139E+00
              0.138494764704952E+01
             -0.128202591838108E+01
             -0.106366735074508E+01
              0.679733694893239E-01
             -0.275419382164268E+00
             -0.345626285620178E+00
             -0.177995291835326E+01
              0.119856377361507E+01
              0.400268570187869E+00
              0.176018930043938E+00
              0.102982932371277E+01
             -0.633223964198693E+00
              0.660182781458558E+00
              0.567622729016760E+00
              0.486508882204415E-01
             -0.154546826831747E+00
              0.182599785644197E+00
             -0.308550065007320E+00
              0.102075770537606E+01
             -0.810728356729784E+00
              0.905965915036150E+00
              0.177465988234388E+00
              0.309156237776602E+00
              0.399482806948342E+00
             -0.160135059381292E+01
              0.179199729197970E+00
             -0.129386522305399E+01
             -0.956177109156358E+00
             -0.944789912038321E+00
             -0.101001498417622E+01
              0.824985435367509E-02
              0.350932816464160E+00
              0.976547218820925E+00
              0.154394846567498E+00
              0.282918651448542E+00
             -0.137468606407704E+01
             -0.556534991958254E+00
              0.627685087499096E+00
             -0.553557227601524E-01
             -0.546619178253849E-01
             -0.184408619504245E+00
              0.719239391151347E+00
             -0.178886164673408E+01
              0.264148422298704E+00
              0.425133898096884E+00
              0.787074463806481E+00
              0.745018770451594E+00
             -0.111892109659048E+01
              0.282820858595969E+00
              0.118693698878928E+00
              0.131252561303203E+00
              0.886717072247141E-01
             -0.382443590573406E+00
             -0.829817225418832E+00
              0.338513517010671E+00
              0.115992603003263E+01
             -0.420909453355520E-01
              0.262465390228706E+00
              0.250014672576969E+00
             -0.594083253981495E+00
             -0.624103274839308E+00
             -0.240052331269591E+01
             -0.756312603697691E+00
             -0.112180022980867E+01
             -0.129620174144224E+00
             -0.132522685800337E+01
              0.148993310274702E+01
             -0.652106225709639E+00
             -0.107354907754815E+01
             -0.309536863802653E+01
              0.132180058634963E+01
              0.289956965544768E+00
              0.150266524696723E+00
             -0.119886481412104E+01
              0.848984822724610E-01
             -0.308605288055853E+00
             -0.613704447546095E+00
              0.174467496396627E+00
              0.630178009110208E+00
              0.104954053518573E+00
             -0.386476153880782E+00
              0.479331895440680E-01
              0.175847407795615E-01
              0.244220190735396E+00
             -0.129625426543593E+01
              0.142868761669237E+01
             -0.820306356107930E+00
             -0.511542783670449E+00
             -0.980502247952998E+00
             -0.210639684268292E+01
              0.108608836359597E+00
             -0.109865347784814E+01
             -0.378792250791866E+00
              0.612556230997829E+00
             -0.522890571385362E+00
             -0.196253479652929E+00
             -0.247115343998994E+00
             -0.421279581610785E+00
              0.654730078018562E-01
              0.100863973801519E+01
             -0.999158776337539E+00
              0.201217884228404E+01
             -0.469339533611375E+00
              0.645492989435175E+00
             -0.327953627356855E+00
              0.251846116291139E+00
             -0.242764619899011E+00
              0.889241152811996E+00
              0.124656168255004E+01
              0.363315664796158E+00
              0.917693924960355E+00
             -0.605828230538400E+00
             -0.124646006005211E+00
             -0.474689331864544E+00
              0.125504886839734E+01
              0.108200164175056E+01
              0.793631201416266E+00
             -0.254456761686138E+00
             -0.521012949200877E+00
              0.484404175181346E+00
             -0.556779056994130E+00
             -0.290522536651663E+00
             -0.122314709652490E+00
             -0.674220324365235E+00
              0.981099946805300E+00
             -0.198385058231279E+00
              0.727033864078292E+00
              0.402887864671658E+00
              0.303351270028374E+00
             -0.679797871745663E+00
              0.527312115414303E+00
             -0.283976773864398E+00
             -0.144420346550251E+00
             -0.252360794487974E-01
             -0.963862165136923E+00
              0.153416416621909E+01
             -0.546037592002054E+00
             -0.957027170846558E-03
              0.469217799614273E+00
              0.392298971194577E+00
              0.149830083165103E+01
             -0.427772411825261E+00
              0.148809456940281E+01
              0.132409208235171E+01
             -0.185302463982163E+01
              0.157292283329935E+00
             -0.375756365119186E+00
              0.233807837205200E+00
              0.936480548682201E-01
              0.412542737288280E+00
              0.125958455879084E+01
              0.193165922436998E+01
             -0.146067248021204E+01
              0.150977994559215E+01
             -0.195399284826601E+01
             -0.166196236320161E+01
             -0.278900167427182E+00
              0.155247484495566E-01
              0.152780859056525E+01
              0.655218532890785E+00
             -0.292523434354934E+00
             -0.166761286669992E+01
              0.132574586585272E+01
             -0.815317607724563E+00
              0.173864001213175E-01
             -0.897840709409583E-01
              0.254742519046680E+01
             -0.465355797201491E+00
             -0.207165893607889E+01
              0.603063885884016E+00
             -0.320514951459617E+01
              0.250785369736712E+00
             -0.755048729124005E+00
             -0.343898843651353E+00
             -0.527429547677972E+00
             -0.117697682630469E+01
              0.741381319049949E+00
             -0.710390117210331E+00
             -0.262331939042054E+00
             -0.149043891782855E+01
             -0.952289962475721E-01
             -0.104543014576078E+01
             -0.151591926911930E+01
             -0.214013561817328E+01
              0.155651609739288E+00
             -0.706384158800250E+00
              0.156409994880422E+00
             -0.258396451506599E+00
             -0.162160236278163E+01
             -0.125369839224262E+01
             -0.110463000485169E+01
             -0.113016711499319E+01
              0.102907085271914E+01
              0.138531341027105E+00
             -0.974186129864437E+00
             -0.467141580221938E+00
             -0.531028767969239E+00
              0.802532184373198E+00
             -0.630080934412124E+00
             -0.118502138348744E+00
             -0.583454853686433E+00
             -0.781988869296054E+00
             -0.804895247441991E+00
              0.804842326000390E+00
             -0.263866005223797E+00
             -0.180524015802749E+01
              0.153847088216329E+01
              0.904353523622615E+00
              0.755127179697546E-01
             -0.156886762714508E+01
             -0.147894302985816E+01
              0.121514942000751E+00
              0.197138230791625E-01
             -0.648425568717894E+00
             -0.886254472480065E+00
              0.616870705018153E+00
             -0.112337982745791E+00
              0.535126751545274E+00
              0.944180715861423E+00
              0.694984224180804E+00
              0.517902717537266E+00
              0.437982615882798E+00
             -0.442593535525557E+00
             -0.288707567680630E+00
             -0.365142802734168E+00
             -0.746939364814109E+00
             -0.942006076298251E+00
             -0.120380274721720E+01
             -0.722957270907914E+00
             -0.244583891783197E+00
             -0.148333565691155E+01
             -0.311528991860683E+00
              0.673039415389928E+00
             -0.161531698039179E+01
              0.686347295912850E+00
              0.539623846280410E+00
             -0.142108069537105E+01
             -0.110901150629779E+01
             -0.433264688559853E+00
              0.272124678182940E+00
             -0.815265804314453E+00
              0.147016460108892E+01
              0.130908876739602E+01
             -0.150815971026005E+01
              0.857584273733961E+00
              0.715908699601927E+00
              0.180603762031682E+00
              0.400217027874836E+00
             -0.835397314205851E+00
             -0.304410507814480E+00
              0.114223287274577E+00
              0.394098749089753E+00
              0.827985833979259E+00
             -0.105915512933018E+01
             -0.197535455947841E+00
              0.328855733121542E+00
              0.147508274015186E+00
             -0.652736126251726E+00
              0.358375194347976E+00
             -0.503285314740237E+00
             -0.343464010292764E+00
             -0.844297344586131E-03
             -0.121249860408928E+01
              0.974308166188731E-02
             -0.221215306326139E+00
             -0.301488083088671E+00
              0.255198754874262E+00
             -0.105564406582644E+01
              0.113344783607966E+01
             -0.432407917932137E+00
             -0.263086280885247E+01
             -0.169545431053874E+01
              0.696207972420670E+00
             -0.800334071307393E+00
             -0.421143469357691E+00
             -0.482231974941600E+00
             -0.366090645012815E+00
             -0.202916406448710E+01
             -0.508879976088537E-01
             -0.122828858794210E+01
             -0.651798642455725E+00
              0.423973505413228E+00
              0.153116425561973E+01
              0.709465453741689E-01
              0.438088775658394E-01
              0.118084191066706E+01
             -0.111013825252333E+01
              0.575491717160225E+00
              0.133401799440010E+00
             -0.100591974430984E+01
             -0.561744553768309E+00
              0.397874508881642E+00
              0.594776321324528E-01
              0.307741611416248E+00
              0.280331110198428E+00
             -0.463147317921872E+00
             -0.623360698846273E+00
             -0.996785752450847E+00
              0.977946289320551E+00
             -0.132859628216036E+01
             -0.975383968598179E+00
              0.274165133404615E+00
             -0.167778075689290E+01
              0.436438841764927E+00
              0.117302734737134E+01
             -0.212310341969008E+00
              0.361745682002864E+00
             -0.632089071485069E+00
             -0.435115859240221E+00
              0.214368301586015E+00
              0.711617167921968E+00
             -0.732431606257511E+00
              0.464664635863423E+00
             -0.280901231860383E+00
              0.100917611608118E+00
              0.382998327914421E+00
              0.213956466245690E+00
             -0.223910857220509E+00
             -0.121904759700460E-01
              0.276683787229326E+00
              0.543179076826991E+00
             -0.139595258869020E+01
             -0.144202173549708E-01
              0.106393056263115E+01
             -0.177382818957878E+01
              0.652896439575320E+00
             -0.225398210997580E+01
             -0.219123749040916E+00
             -0.281263502171932E+00
             -0.622312207275719E-01
             -0.230818651538335E+00
             -0.551607651929454E+00
             -0.175544264649412E+00
              0.283917992938297E+00
             -0.477687409263886E+00
              0.221030015774771E+00
              0.177429420159891E+01
             -0.114756209694855E+01
             -0.500829421399374E+00
              0.807116646367201E+00
              0.417373640001144E+00
              0.820159836249646E+00
              0.371571952366637E+00
              0.373016602533603E+00
             -0.299511312946533E+00
             -0.980232031151869E+00
             -0.867524128468505E+00
             -0.647157293916100E+00
              0.893427354243372E-01
             -0.836288635185030E+00
             -0.236905970207206E+00
              0.124062487478250E+00
              0.480452213715433E+00
             -0.138824820661509E+00
              0.114593776156776E+01
             -0.124409568253846E+01
             -0.293306731952354E-01
             -0.147118145336670E+00
              0.616601581939728E+00
             -0.851047559526734E+00
             -0.554825127330353E+00
              0.313165993094816E+00
              0.920146831326998E+00
              0.146213267480552E+01
              0.613422118668348E+00
              0.899163724158416E+00
             -0.504450122842818E+00
              0.123460125405386E+01
              0.125283292317908E+01
             -0.518490690156828E-01
              0.646962891709213E+00
              0.754606263706419E+00
             -0.427111980565057E+00
              0.242047267350530E+00
              0.130026944047311E+01
             -0.435201691503048E+00
             -0.148874800550452E+00
             -0.122623190179755E+01
              0.460800827693334E+00
             -0.266796273260014E+00
              0.408940516048853E+00
              0.535641412904582E-01
             -0.781468595067607E+00
              0.895462247352813E+00
              0.782592754052370E+00
             -0.602344797889407E+00
              0.336065778716771E+00
             -0.115873170491813E+01
             -0.106836593121184E+01
              0.488941040951740E+00
             -0.134973774783779E+01
             -0.667997432821856E+00
              0.467221149234049E-01
              0.167802231134077E+01
             -0.442955141500310E+00
             -0.202420830260279E+00
             -0.381362605571307E+00
              0.220910369724366E+01
              0.362200410438352E+00
             -0.839646640507539E+00
              0.137686612929099E+01
              0.122330217496359E+01
              0.637020843676825E+00
              0.155427241565824E+01
              0.169419648694972E+01
             -0.923336684721603E-01
             -0.586692936594067E+00
             -0.508061665913120E+00
              0.535037923556863E+00
              0.773042411623766E+00
             -0.133850387105882E+00
             -0.461038808488184E+00
             -0.113343593064155E+01
             -0.443192673375870E+00
             -0.918688149278623E+00
              0.662282590867333E+00
              0.333871407795781E+00
              0.117822770202191E+01
              0.243636941745369E+00
             -0.457098125432235E+00
             -0.179934560177138E+00
              0.787186173821754E+00
              0.207389951325906E+00
              0.118162357848720E+01
              0.109863496010750E+01
             -0.183642319273106E+00
             -0.164207423480728E+00
             -0.197496524488388E+01
              0.985923772115392E+00
             -0.261641185676247E-01
              0.109934184071193E+01
             -0.482250140435068E+00
             -0.128117989420190E+01
              0.375542366213147E+00
              0.141971443028533E+01
             -0.494145730695502E+00
              0.132230553210452E+01
             -0.141162347143991E+01
             -0.507215626195642E+00
             -0.167214764220107E+01
              0.346360111593864E+00
              0.114579334018264E+00
              0.145048995356500E+00
             -0.121447611007178E+01
              0.181281222983214E+01
              0.105551595422919E+01
              0.120964208252119E+00
             -0.104042079830393E+01
              0.394308255715555E+00
             -0.387664168929502E+00
             -0.273451939367904E+00
             -0.528399754893909E+00
              0.342279161602861E+00
             -0.305697566219647E+00
             -0.357546582687586E+00
              0.452126400401486E+00
              0.461726223221158E+00
             -0.176326777178230E+01
              0.387625968792216E+00
              0.130217834098324E+01
              0.839301651578650E+00
             -0.271247865536082E+00
             -0.279997204554745E-01
             -0.722486454850267E+00
              0.110285915321466E+01
              0.199291724758577E+00
             -0.618798151982096E-01
             -0.116937459510027E+00
              0.215352179655168E+01
             -0.120035364575746E+00
              0.481435513467810E+00
              0.145473753372360E+01
              0.190190137937327E+01
              0.118683533609200E+01
              0.778060663611348E+00
             -0.124540602041479E+01
             -0.901653260343018E+00
              0.727342098000567E+00
              0.688502952787422E-01
              0.607128142452907E+00
              0.259640681889166E+00
              0.125271331381965E+01
             -0.155693459230153E+01
             -0.972035104048317E+00
             -0.201049600729105E+00
             -0.172337623061731E+01
              0.380818205388662E+00
              0.885313847474844E+00
              0.596452927263673E-01
             -0.405772731203335E+00
              0.405178245001474E+00
              0.268040158699358E+01
              0.608190868951359E+00
              0.347622616729666E+00
             -0.947901684188341E+00
             -0.117673078701305E+01
             -0.257490835726787E+00
              0.549586370217992E+00
             -0.114750249393673E+00
              0.491246395744952E+00
              0.694964369072270E+00
             -0.122530474643185E+01
              0.527756201762086E+00
              0.712765327437083E+00
              0.113519826540934E+01
             -0.193769948612231E+00
              0.915306123726598E-01
             -0.141651255374525E+00
             -0.897858510882006E+00
             -0.142029468071020E+01
              0.152766885738050E+01
             -0.197838597571927E+00
             -0.106037760848583E+01
              0.143371716317940E+00
             -0.580992139735431E+00
              0.168743373405245E+01
             -0.448432997719195E+00
             -0.730785127215786E+00
              0.700156824715030E+00
             -0.301093083135392E+00
              0.916202853100113E+00
              0.465641362632585E-02
              0.184118041233648E+01
              0.102208751788486E+01
              0.206227359500339E+00
             -0.775182437982409E+00
              0.550880165892696E+00
             -0.107169944536404E+01
             -0.107297479599236E+00
              0.126132795845396E+01
             -0.500741997982235E+00
             -0.874267102093389E+00
             -0.447319934161939E+00
              0.101878227477992E+01
              0.248291866392853E+00
             -0.159948629325239E+01
              0.662062739309182E+00
              0.147611878711631E+00
              0.203013274890638E+00
             -0.959448391987653E+00
              0.183640120607034E+00
              0.686426698682065E+00
              0.919315576195806E+00
              0.126754026232696E+01
              0.673563681129545E+00
              0.161897775343169E+00
             -0.106836159877096E+01
             -0.824671373964252E+00
             -0.130117963767787E+01
             -0.268135950623172E+00
              0.663804639599697E+00
             -0.262103678999570E-02
              0.102660625625984E+01
             -0.622332788138790E+00
              0.352050768195793E+00
             -0.418724933611615E+00
             -0.527858998180793E+00
              0.114946578654188E+01
              0.109916933702483E+00
              0.121271067910838E+01
              0.906302863103523E-01
              0.400037833375748E+00
             -0.324150819122234E+00
              0.119565310149178E+01
             -0.298282071033166E+00
             -0.980688379416933E-02
             -0.153178307999156E+01
             -0.145527511719116E+00
              0.137561998290258E+01
              0.127459867811437E+01
              0.491195287566420E+00
             -0.311080517248184E+00
              0.896792660882726E-01
             -0.445022300634459E+00
             -0.344446546310585E+00
              0.174955921048481E+01
              0.132880660858980E+00
             -0.561204536564832E+00
             -0.210331503217311E+01
             -0.875915923066844E+00
             -0.738709481431568E+00
             -0.122015336784483E+01
             -0.115987962032179E+01
             -0.139792062285588E+01
             -0.885358004001906E+00
             -0.565185811039861E+00
             -0.943412663686760E+00
              0.866299770784251E+00
             -0.366204314512958E+00
             -0.170515756156944E+01
              0.803576761817421E+00
             -0.651663555684168E+00
             -0.157396553805723E+01
              0.197711153318588E+01
             -0.498225098176059E+00
              0.302838546856357E+00
              0.741893271937341E+00
              0.225883908196689E+00
              0.507148905298502E+00
              0.786714288429469E-02
              0.175324360897419E-01
             -0.243799808865456E+00
             -0.143393502730998E+01
              0.202233215074794E+00
             -0.238919657216215E+01
              0.139498047211846E+01
             -0.792154603159807E+00
             -0.349666051309393E+00
             -0.406325152764934E+00
              0.408017613240429E+00
             -0.317138730832712E+00
              0.559414191202969E+00
             -0.114352410583508E+01
              0.722637670890486E+00
              0.823751408817388E+00
              0.199704009564766E+00
              0.173508912855881E+00
              0.417775367701295E+00
              0.188396494162890E+00
              0.590807864867665E+00
             -0.996342723716648E-01
             -0.142320882348905E+01
              0.191376177834553E+00
             -0.666698347284164E+00
             -0.619874007453980E-01
              0.106853160706383E+01
             -0.156829174363714E+01
              0.359280871451997E-01
              0.630300270706901E-01
              0.178435195644756E+00
              0.612570654942202E+00
             -0.256686705772935E+00
              0.165828182881132E+01
              0.758062101686118E+00
             -0.292193349171435E+00
             -0.190238455249952E+00
              0.110244792836382E+00
              0.154701966293489E+01
             -0.980310476735953E+00
             -0.198985192690133E+01
              0.563103043470413E+00
             -0.151986491189760E+00
             -0.288594398069013E+00
              0.380628439549938E+00
              0.148994631663974E+01
              0.832620293673322E+00
             -0.345578906673838E+00
             -0.105160168781415E+01
             -0.231391066958425E+00
              0.540412958522416E+00
             -0.340837617678386E+00
             -0.148873532313754E+01
             -0.165367515300801E+00
             -0.191307178237902E+01
             -0.100685263427968E+01
              0.169379115992743E+01
             -0.102755372470331E+01
             -0.139553487359595E+01
             -0.104192195373170E+01
             -0.778130189778043E+00
              0.654377309713300E+00
              0.166291879814506E+01
             -0.175419386487621E+00
              0.525388599459641E+00
             -0.389342456189523E+00
             -0.134029306316440E+01
              0.100477250495469E+01
             -0.942236981364244E+00
              0.495287296132123E+00
              0.578448369762028E+00
             -0.287222842694231E+00
              0.752062244655578E+00
              0.775166804235464E+00
              0.234764452380857E+01
             -0.216999987839253E+00
             -0.107869639402507E+01
             -0.131262646679304E+01
             -0.375316879816455E+00
             -0.786531074449767E+00
              0.185334512778498E+01
             -0.881665672189196E+00
              0.199671493576353E+00
              0.590888819077042E-01
             -0.401450897984447E+00
             -0.166958404200832E+01
             -0.123886573915697E+00
              0.196934775015164E+01
              0.403552698435030E+00
              0.146058435701366E+00
             -0.113984982171859E+01
             -0.108639938923224E+01
             -0.338415165397028E+00
              0.900574003960253E+00
             -0.515012438808929E+00
              0.199558490129872E+01
             -0.909244925843978E+00
              0.379769004499508E+00
             -0.287833294070726E+00
             -0.121583878200429E+01
              0.128207861421644E+00
             -0.109987093070353E+01
             -0.145333271313320E+01
              0.208632681269032E+00
              0.346378123915061E-01
              0.970981431569899E+00
              0.522174989838159E+00
             -0.686921800409937E+00
              0.430778378482186E+00
             -0.171862683343933E+01
             -0.948705544157471E+00
              0.182609435336275E+01
              0.976470668562521E-01
             -0.122032152396095E+00
             -0.501833839479113E+00
             -0.164025587047600E-01
             -0.232702025524750E+00
              0.177783288707540E+01
              0.800710495129094E+00
             -0.190447163110386E+00
             -0.110141528835008E-01
             -0.751221272558763E+00
             -0.267999190702923E+00
             -0.124146618255362E+01
              0.101298280190664E+01
              0.132329723121325E+00
              0.167461555551897E+00
              0.356039429311251E+00
             -0.264271886809389E+00
             -0.439945893477664E+00
              0.145711918575618E+00
             -0.219241515995714E+01
             -0.218748372108540E+00
             -0.175634137582721E+00
             -0.127815182577334E+00
              0.987851808671959E+00
              0.126328742964901E+01
              0.346937877636361E+00
             -0.183756121612426E+01
              0.126399007696967E+01
             -0.468000199347145E+00
             -0.736384814067514E+00
             -0.172340001206318E+01
             -0.541615069857859E+00
              0.122451459224965E+01
              0.638751830548529E+00
              0.303863464856951E+00
              0.683344914013956E+00
             -0.110949205847270E+01
             -0.952319267902805E+00
              0.122450590991852E+01
              0.813277217917987E+00
              0.942147209631946E+00
              0.138356726071926E+00
              0.197059554429006E+00
              0.104228130965577E+01
              0.194957206022797E+01
             -0.362751202848425E+00
              0.790582251031729E+00
             -0.534530070925079E+00
             -0.860059974037706E+00
             -0.680477306326876E+00
             -0.645111891050353E+00
             -0.283633039449964E+00
             -0.948094189665632E+00
             -0.397732961923008E+00
             -0.256181245427998E+01
              0.614791177357632E+00
              0.543638651798789E+00
             -0.601233905368805E-01
             -0.746623519357115E+00
             -0.380540393662627E+00
             -0.110645462005377E+01
              0.120172383923901E+00
              0.156966164146479E+01
             -0.365208140481414E+00
             -0.368656058182250E+00
              0.376043418765647E+00
             -0.985118821358053E+00
              0.169377476546263E+01
              0.318504242910194E+00
              0.148590676805208E+00
              0.104174298865674E+01
             -0.940649729302168E-01
              0.116458052515735E+01
              0.392645040446214E+00
             -0.549109716202314E-01
              0.271756555168590E+00
             -0.177268764574777E+00
              0.133627522667792E+01
              0.133864864873535E+00
              0.402323416265588E+00
             -0.164410040896521E+00
              0.209472261689972E+00
             -0.185656627980099E+01
             -0.713023248670648E+00
             -0.969753603815603E+00
              0.100873058141519E+01
             -0.687529236585203E+00
             -0.111548015214602E+01
              0.118173787769229E+01
             -0.274992139926333E+00
              0.823210129467839E+00
             -0.176524734114930E+01
              0.379277214674925E+00
              0.890412600712951E-01
              0.126090572563704E+00
             -0.256366224543771E+00
             -0.119487598771988E+00
              0.984079888955100E+00
              0.460343428800316E-01
             -0.103581292415809E+01
             -0.409853851326891E+00
              0.381339065568977E+00
             -0.227267802669194E+01
             -0.173533539708795E+01
              0.167353754199864E-01
              0.305188083872379E+00
             -0.987919333942237E+00
              0.647026483869162E-02
              0.204331860326506E+01
              0.599208665249595E+00
             -0.106913984590875E+01
              0.155683313645673E+00
             -0.203225861857857E+00
              0.247372887409417E+00
             -0.700262910319163E+00
              0.433073109020413E+00
              0.474385130466500E+00
             -0.183924613343002E+00
              0.223053215145432E+01
             -0.863371380019875E-01
             -0.612151755707227E+00
              0.595745130388465E+00
              0.829091982098426E+00
             -0.642543168541581E+00
             -0.246459448494091E-01
              0.192549966280261E+01
             -0.268453440074747E-01
              0.103266896404064E+01
              0.325134476319295E+00
             -0.154780350579446E+00
             -0.321704118384037E+00
              0.970310010634972E+00
             -0.116662309982375E+01
             -0.412845162390658E-01
             -0.381521494020837E+00
             -0.805601952570877E+00
              0.223660818380722E+00
              0.478823575749146E+00
             -0.140494814310426E-01
             -0.398074449537429E-01
             -0.814591344527688E+00
              0.307826932146644E+00
             -0.203485516880395E-01
             -0.446527347741188E+00
             -0.409086812727610E+00
              0.348123026236685E+00
             -0.113891356211262E-01
             -0.763786028766190E+00
             -0.211088169270918E+01
              0.129169988707416E+00
              0.316988714651115E+00
             -0.970229970733860E+00
             -0.494733942560481E+00
              0.162472960762274E+01
              0.236895303453307E+00
              0.861469102105804E+00
              0.212326397730387E+00
              0.791922657910872E+00
              0.459975273257829E-01
             -0.789750260558026E+00
             -0.210922831990297E+00
              0.112302116710025E+00
              0.604677477854616E+00
              0.149710736232301E+01
              0.970611383045090E+00
              0.568633840184720E-01
              0.222397282464422E+00
              0.119275097666699E+01
              0.558555920701888E+00
             -0.137865357427477E+01
             -0.540429951745581E+00
              0.223164701382163E+00
              0.207157367617496E+00
              0.508228953961193E+00
             -0.101151860476764E+01
              0.120925713432231E+00
              0.812027849326034E+00
              0.962669881782392E+00
             -0.846832403552296E+00
              0.342780146755191E-01
             -0.492704430580808E-01
             -0.404351013567203E+00
             -0.516440821775787E+00
             -0.243129906732688E+00
             -0.220539510646257E+00
              0.214677846948488E+00
              0.824980149020679E+00
             -0.647372988407814E+00
              0.159665430884610E+01
              0.673925170333656E+00
              0.520527694959679E+00
              0.719615568962594E+00
              0.500678709772206E+00
              0.676756160451569E+00
              0.109757960469137E+01
             -0.930734888468155E+00
              0.124447385866021E+01
             -0.223146237219353E+01
              0.624567331579511E+00
             -0.209063080235330E+01
              0.159938027160326E+01
              0.154325874068303E+01
             -0.172993131107465E+00
             -0.932960237175061E+00
             -0.841971372203028E+00
             -0.106306318693831E+01
             -0.128532660233753E+01
              0.108362070186591E+01
              0.857634176882925E+00
              0.487084642167179E+00
              0.515276584213387E+00
              0.875248429949588E+00
             -0.804838777103710E+00
             -0.296921179629489E+00
              0.105745495878964E+01
             -0.238394075823603E+00
              0.979058312285924E+00
              0.152807394552603E+01
             -0.632948847817382E-01
             -0.149013148544337E+01
              0.957827139375844E-01
              0.351838754264649E-01
             -0.208326833055505E+00
              0.690893243492461E-01
             -0.128900701513464E+01
             -0.193749071404066E+00
              0.252536327126764E+00
              0.263011674052992E+00
              0.984762267474179E+00
             -0.827540215912601E+00
              0.104167844577959E+01
             -0.759129966364597E+00
              0.522518925666094E+00
              0.863688801331068E+00
 
 BEEF-vdW xc energy contributions
           1 :   -13.9521020576556     
           2 :    11.6010974689961     
           3 :   -8.19618787805819     
           4 :    4.96711170688835     
           5 :   -2.51075511987601     
           6 :   0.947578647436440     
           7 :  -0.137691817302017     
           8 :  -0.188546965310616     
           9 :   0.308441750274154     
          10 :  -0.409981134946252     
          11 :   0.535312964697496     
          12 :  -0.622030370843072     
          13 :   0.599117439572449     
          14 :  -0.459285602052931     
          15 :   0.253171003157647     
          16 :  -5.533683628500441E-002
          17 :  -7.450765714165719E-002
          18 :   0.116936415041600     
          19 :  -9.614117685223711E-002
          20 :   5.748967646315606E-002
          21 :  -3.991856057680643E-002
          22 :   5.417804464095077E-002
          23 :  -8.734114894297029E-002
          24 :   0.116068596667271     
          25 :  -0.122034613160295     
          26 :   0.107830226045172     
          27 :  -9.019414306503393E-002
          28 :   7.309504418574342E-002
          29 :  -4.868740572179675E-002
          30 :   1.708990686957712E-002
          31 :   -1.77017588531427     
          32 :   -1.10605682365579     

     Writing output data file ./pwscf.save/
 
     init_run     :     71.93s CPU     74.43s WALL (       1 calls)
     electrons    :    642.42s CPU    729.00s WALL (       1 calls)
     forces       :     33.14s CPU     35.04s WALL (       1 calls)

     Called by init_run:
     wfcinit      :      1.97s CPU      2.03s WALL (       1 calls)
     potinit      :     59.58s CPU     61.32s WALL (       1 calls)
     hinit0       :      8.61s CPU      8.75s WALL (       1 calls)

     Called by electrons:
     c_bands      :     72.75s CPU     72.88s WALL (      16 calls)
     sum_band     :     52.16s CPU     59.44s WALL (      16 calls)
     v_of_rho     :    401.16s CPU    423.02s WALL (      17 calls)
     newd         :     20.50s CPU     27.98s WALL (      17 calls)
     PAW_pot      :      2.15s CPU      2.15s WALL (      17 calls)
     mix_rho      :    148.54s CPU    151.23s WALL (      16 calls)
     vdW_kernel   :     33.52s CPU     33.52s WALL (       1 calls)

     Called by c_bands:
     init_us_2    :      1.23s CPU      1.26s WALL (      33 calls)
     regterg      :     70.15s CPU     70.26s WALL (      16 calls)

     Called by *egterg:
     rdiaghg      :      0.01s CPU      0.01s WALL (      60 calls)
     h_psi        :     66.70s CPU     66.76s WALL (      61 calls)
     s_psi        :      1.12s CPU      1.13s WALL (      61 calls)
     g_psi        :      0.15s CPU      0.15s WALL (      44 calls)

     Called by h_psi:
     h_psi:calbec :      0.76s CPU      0.76s WALL (      61 calls)
     vloc_psi     :     64.49s CPU     64.54s WALL (      61 calls)
     add_vuspsi   :      1.14s CPU      1.14s WALL (      61 calls)

     General routines
     calbec       :      1.04s CPU      1.05s WALL (      81 calls)
     fft          :    329.36s CPU    329.50s WALL (    2932 calls)
     ffts         :     67.72s CPU     67.73s WALL (     605 calls)
     fftw         :     65.62s CPU     65.65s WALL (     582 calls)
 
     Parallel routines
 
     PWSCF        :  23m52.19s CPU  27m43.53s WALL

 
   This run was terminated on:  12:22:22  20May2022            

=------------------------------------------------------------------------------=
   JOB DONE.
=------------------------------------------------------------------------------=
