
     Program PWSCF v.6.8 starts on 20Dec2022 at 16:13:23 

     This program is part of the open-source Quantum ESPRESSO suite
     for quantum simulation of materials; please cite
         "P. Giannozzi et al., J. Phys.:Condens. Matter 21 395502 (2009);
         "P. Giannozzi et al., J. Phys.:Condens. Matter 29 465901 (2017);
         "P. Giannozzi et al., J. Chem. Phys. 152 154105 (2020);
          URL http://www.quantum-espresso.org", 
     in publications or presentations arising from this work. More details at
     http://www.quantum-espresso.org/quote

     Parallel version (MPI), running on     1 processors

     MPI processes distributed on     1 nodes
     355422 MiB available memory on the printing compute node when the environment starts
 
     Reading input from ch-gas-ensemble.in
Warning: card &CELL ignored
Warning: card / ignored

     Current dimensions of program PWSCF are:
     Max number of different atomic species (ntypx) = 10
     Max number of k-points (npk) =  40000
     Max angular momentum in pseudopotentials (lmaxx) =  4
     file C.pbe-n-kjpaw_psl.1.0.0.UPF: wavefunction(s)  2S 2P renormalized
     file H.pbe-kjpaw_psl.1.0.0.UPF: wavefunction(s)  1S renormalized

     **************************************************************************
     Initializing libbeef V0.1.2 with the BEEF-vdW functional.
     Citation: Wellendorff et al., PRB 85, 235149 (2012).
     **************************************************************************


     IMPORTANT: XC functional enforced from input :
     Exchange-correlation= BEEF-VDW
                           (   1   4  43  14   2   0   0)
     Any further DFT definition will be discarded
     Please, verify this is what you really want


     gamma-point specific algorithms are used

     Subspace diagonalization in iterative solution of the eigenvalue problem:
     a serial algorithm will be used

 
     G-vector sticks info
     --------------------
     sticks:   dense  smooth     PW     G-vecs:    dense   smooth      PW
     Sum       27281   27281   6817              3581181  3581181  447611
 
     Using Slab Decomposition
 


     bravais-lattice index     =            0
     lattice parameter (alat)  =      37.7945  a.u.
     unit-cell volume          =   57028.6757 (a.u.)^3
     number of atoms/cell      =            2
     number of atomic types    =            2
     number of electrons       =         5.00
     number of Kohn-Sham states=            7
     kinetic-energy cutoff     =      60.0000  Ry
     charge density cutoff     =     240.0000  Ry
     scf convergence threshold =      1.0E-06
     mixing beta               =       0.7000
     number of iterations used =            8  local-TF  mixing
     Exchange-correlation= BEEF-VDW
                           (   1   4  43  14   2   0   0)

     celldm(1)=  37.794523  celldm(2)=   0.000000  celldm(3)=   0.000000
     celldm(4)=   0.000000  celldm(5)=   0.000000  celldm(6)=   0.000000

     crystal axes: (cart. coord. in units of alat)
               a(1) = (   1.000000   0.000000   0.000000 )  
               a(2) = (   0.000000   1.000000   0.000000 )  
               a(3) = (   0.000000   0.000000   1.056347 )  

     reciprocal axes: (cart. coord. in units 2 pi/alat)
               b(1) = (  1.000000  0.000000  0.000000 )  
               b(2) = (  0.000000  1.000000  0.000000 )  
               b(3) = (  0.000000  0.000000  0.946658 )  


     PseudoPot. # 1 for C  read from file:
     /users/bkreitz1/quantum-espresso/potentials/C.pbe-n-kjpaw_psl.1.0.0.UPF
     MD5 check sum: a169b0ebad56f5ec0d79c4633f80bf22
     Pseudo is Projector augmented-wave + core cor, Zval =  4.0
     Generated using 'atomic' code by A. Dal Corso  v.6.7MaX
     Shape of augmentation charge: PSQ
     Using radial grid of 1073 points,  4 beta functions with: 
                l(1) =   0
                l(2) =   0
                l(3) =   1
                l(4) =   1
     Q(r) pseudized with 0 coefficients 


     PseudoPot. # 2 for H  read from file:
     /users/bkreitz1/quantum-espresso/potentials/H.pbe-kjpaw_psl.1.0.0.UPF
     MD5 check sum: ae98473e6dc62675f0d0baffdab24f65
     Pseudo is Projector augmented-wave, Zval =  1.0
     Generated using 'atomic' code by A. Dal Corso  v.6.7MaX
     Shape of augmentation charge: PSQ
     Using radial grid of  929 points,  2 beta functions with: 
                l(1) =   0
                l(2) =   0
     Q(r) pseudized with 0 coefficients 


     atomic species   valence    mass     pseudopotential
        C              4.00    12.01100     C ( 1.00)
        H              1.00     1.00800     H ( 1.00)

     Starting magnetic structure 
     atomic species   magnetization
        C            0.250
        H            0.000

     No symmetry found



   Cartesian axes

     site n.     atom                  positions (alat units)
         1           C   tau(   1) = (   0.5000000   0.5000000   0.5563472  )
         2           H   tau(   2) = (   0.5000000   0.5000000   0.5000000  )

     number of k points=     1  Gaussian smearing, width (Ry)=  0.0050
                       cart. coord. in units 2pi/alat
        k(    1) = (   0.0000000   0.0000000   0.0000000), wk =   1.0000000

     Dense  grid:  1790591 G-vectors     FFT dimensions: ( 192, 192, 200)

     Estimated max dynamical RAM per process >       3.39 GB
     Generating pointlists ...
     new r_m :   0.0232 (alat units)  0.8785 (a.u.) for type    1
     new r_m :   0.0232 (alat units)  0.8785 (a.u.) for type    2

     Initial potential from superposition of free atoms

     starting charge    4.99995, renormalised to    5.00000

     negative rho (up, down):  3.093E-03 1.855E-03


     %%%%%%%%%%%%%%%%%%%%%%%%%%%%%%%%%%%%%%%%%%%%%%%%%%%%%%%%%%%%%%%%%%%%%%%%
     %                                                                      %
     % You are using vdW-DF, which was implemented by the Thonhauser group. %
     % Please cite the following two papers that made this development      %
     % possible and the two reviews that describe the various versions:     %
     %                                                                      %
     %   T. Thonhauser et al., PRL 115, 136402 (2015).                      %
     %   T. Thonhauser et al., PRB 76, 125112 (2007).                       %
     %   K. Berland et al., Rep. Prog. Phys. 78, 066501 (2015).             %
     %   D.C. Langreth et al., J. Phys.: Condens. Matter 21, 084203 (2009). %
     %                                                                      %
     %                                                                      %
     % If you are calculating the stress with vdW-DF, please also cite:     %
     %                                                                      %
     %   R. Sabatini et al., J. Phys.: Condens. Matter 24, 424209 (2012).   %
     %                                                                      %
     %%%%%%%%%%%%%%%%%%%%%%%%%%%%%%%%%%%%%%%%%%%%%%%%%%%%%%%%%%%%%%%%%%%%%%%%


     Starting wfcs are    5 randomized atomic wfcs +    2 random wfcs
     Checking if some PAW data can be deallocated... 

     total cpu time spent up to now is       77.5 secs

     Self-consistent Calculation

     iteration #  1     ecut=    60.00 Ry     beta= 0.70
     Davidson diagonalization with overlap
     ethr =  1.00E-02,  avg # of iterations =  5.0

     negative rho (up, down):  2.843E-03 1.792E-03

     total cpu time spent up to now is      128.7 secs

     total energy              =     -19.83964667 Ry
     estimated scf accuracy    <       0.11464619 Ry

     total magnetization       =     1.00 Bohr mag/cell
     absolute magnetization    =     1.05 Bohr mag/cell

     iteration #  2     ecut=    60.00 Ry     beta= 0.70
     Davidson diagonalization with overlap
     ethr =  2.29E-03,  avg # of iterations =  1.0

     negative rho (up, down):  3.217E-03 2.300E-03

     total cpu time spent up to now is      176.1 secs

     total energy              =     -19.83971856 Ry
     estimated scf accuracy    <       0.04744177 Ry

     total magnetization       =     1.00 Bohr mag/cell
     absolute magnetization    =     1.05 Bohr mag/cell

     iteration #  3     ecut=    60.00 Ry     beta= 0.70
     Davidson diagonalization with overlap
     ethr =  9.49E-04,  avg # of iterations =  1.5

     negative rho (up, down):  3.609E-03 3.234E-03

     total cpu time spent up to now is      224.3 secs

     total energy              =     -19.84465042 Ry
     estimated scf accuracy    <       0.00673766 Ry

     total magnetization       =     1.00 Bohr mag/cell
     absolute magnetization    =     1.06 Bohr mag/cell

     iteration #  4     ecut=    60.00 Ry     beta= 0.70
     Davidson diagonalization with overlap
     ethr =  1.35E-04,  avg # of iterations = 10.5

     negative rho (up, down):  5.053E-03 6.193E-03

     total cpu time spent up to now is      279.7 secs

     total energy              =     -19.84543188 Ry
     estimated scf accuracy    <       0.00101845 Ry

     total magnetization       =     1.00 Bohr mag/cell
     absolute magnetization    =     1.06 Bohr mag/cell

     iteration #  5     ecut=    60.00 Ry     beta= 0.70
     Davidson diagonalization with overlap
     ethr =  2.04E-05,  avg # of iterations = 12.5

     negative rho (up, down):  5.669E-03 6.714E-03

     total cpu time spent up to now is      336.6 secs

     total energy              =     -19.84555905 Ry
     estimated scf accuracy    <       0.00027565 Ry

     total magnetization       =     1.00 Bohr mag/cell
     absolute magnetization    =     1.06 Bohr mag/cell

     iteration #  6     ecut=    60.00 Ry     beta= 0.70
     Davidson diagonalization with overlap
     ethr =  5.51E-06,  avg # of iterations = 13.5

     negative rho (up, down):  9.111E-03 9.419E-03

     total cpu time spent up to now is      392.5 secs

     total energy              =     -19.84569456 Ry
     estimated scf accuracy    <       0.00015516 Ry

     total magnetization       =     1.00 Bohr mag/cell
     absolute magnetization    =     1.06 Bohr mag/cell

     iteration #  7     ecut=    60.00 Ry     beta= 0.70
     Davidson diagonalization with overlap
     ethr =  3.10E-06,  avg # of iterations = 12.0

     negative rho (up, down):  6.562E-03 6.185E-03

     total cpu time spent up to now is      448.7 secs

     total energy              =     -19.84579155 Ry
     estimated scf accuracy    <       0.00003799 Ry

     total magnetization       =     1.00 Bohr mag/cell
     absolute magnetization    =     1.06 Bohr mag/cell

     iteration #  8     ecut=    60.00 Ry     beta= 0.70
     Davidson diagonalization with overlap
     c_bands:  1 eigenvalues not converged
     ethr =  7.60E-07,  avg # of iterations = 17.0

     negative rho (up, down):  4.839E-03 3.968E-03

     total cpu time spent up to now is      506.4 secs

     total energy              =     -19.84584165 Ry
     estimated scf accuracy    <       0.00001208 Ry

     total magnetization       =     1.00 Bohr mag/cell
     absolute magnetization    =     1.06 Bohr mag/cell

     iteration #  9     ecut=    60.00 Ry     beta= 0.70
     Davidson diagonalization with overlap
     c_bands:  1 eigenvalues not converged
     ethr =  2.42E-07,  avg # of iterations = 12.5

     negative rho (up, down):  3.624E-03 2.439E-03

     total cpu time spent up to now is      560.2 secs

     total energy              =     -19.84587052 Ry
     estimated scf accuracy    <       0.00000545 Ry

     total magnetization       =     1.00 Bohr mag/cell
     absolute magnetization    =     1.06 Bohr mag/cell

     iteration # 10     ecut=    60.00 Ry     beta= 0.70
     Davidson diagonalization with overlap
     ethr =  1.09E-07,  avg # of iterations =  9.5

     negative rho (up, down):  3.043E-03 1.705E-03

     total cpu time spent up to now is      612.9 secs

     total energy              =     -19.84588429 Ry
     estimated scf accuracy    <       0.00000208 Ry

     total magnetization       =     1.00 Bohr mag/cell
     absolute magnetization    =     1.06 Bohr mag/cell

     iteration # 11     ecut=    60.00 Ry     beta= 0.70
     Davidson diagonalization with overlap
     ethr =  4.15E-08,  avg # of iterations =  3.5

     negative rho (up, down):  2.807E-03 1.375E-03
 
     Magnetic moment per site  (integrated on atomic sphere of radius R)
     atom   1 (R=0.023)  charge=  0.8272  magn=  0.2104
     atom   2 (R=0.023)  charge=  0.5301  magn= -0.0041

     total cpu time spent up to now is      653.2 secs

     End of self-consistent calculation

 ------ SPIN UP ------------


          k = 0.0000 0.0000 0.0000 (223806 PWs)   bands (ev):

   -16.6047  -8.2126  -6.1834  -5.2710  -0.9042  -0.3853  -0.1516

 ------ SPIN DOWN ----------


          k = 0.0000 0.0000 0.0000 (223806 PWs)   bands (ev):

   -15.4917  -7.7568  -4.8448  -3.4361  -0.7648  -0.3734  -0.1516

     the Fermi energy is    -5.5948 ev

!    total energy              =     -19.84589078 Ry

     total all-electron energy =       -77.609984 Ry
     estimated scf accuracy    <       0.00000082 Ry
     smearing contrib. (-TS)   =      -0.00000000 Ry
     internal energy E=F+TS    =     -19.84589078 Ry

     The total energy is F=E-TS. E is the sum of the following terms:
     one-electron contribution =     -21.36833052 Ry
     hartree contribution      =      11.38125131 Ry
     xc contribution           =      -5.19480283 Ry
     ewald contribution        =       1.91673830 Ry
     one-center paw contrib.   =      -6.58074704 Ry

     total magnetization       =     1.00 Bohr mag/cell
     absolute magnetization    =     1.06 Bohr mag/cell

     convergence has been achieved in  11 iterations

     negative rho (up, down):  2.807E-03 1.375E-03

     Forces acting on atoms (cartesian axes, Ry/au):

     atom    1 type  1   force =     0.00004839   -0.00118132    0.04853902
     atom    2 type  2   force =    -0.00004839    0.00118132   -0.04853902

     Total force =     0.068665     Total SCF correction =     0.000020

     negative rho (up, down):  2.807E-03 1.375E-03

     negative rho (up, down):  2.807E-03 1.375E-03

     negative rho (up, down):  2.807E-03 1.375E-03

     negative rho (up, down):  2.807E-03 1.375E-03

     negative rho (up, down):  2.807E-03 1.375E-03

     negative rho (up, down):  2.807E-03 1.375E-03

     negative rho (up, down):  2.807E-03 1.375E-03

     negative rho (up, down):  2.807E-03 1.375E-03

     negative rho (up, down):  2.807E-03 1.375E-03

     negative rho (up, down):  2.807E-03 1.375E-03

     negative rho (up, down):  2.807E-03 1.375E-03

     negative rho (up, down):  2.807E-03 1.375E-03

     negative rho (up, down):  2.807E-03 1.375E-03

     negative rho (up, down):  2.807E-03 1.375E-03

     negative rho (up, down):  2.807E-03 1.375E-03

     negative rho (up, down):  2.807E-03 1.375E-03

     negative rho (up, down):  2.807E-03 1.375E-03

     negative rho (up, down):  2.807E-03 1.375E-03

     negative rho (up, down):  2.807E-03 1.375E-03

     negative rho (up, down):  2.807E-03 1.375E-03

     negative rho (up, down):  2.807E-03 1.375E-03

     negative rho (up, down):  2.807E-03 1.375E-03

     negative rho (up, down):  2.807E-03 1.375E-03

     negative rho (up, down):  2.807E-03 1.375E-03

     negative rho (up, down):  2.807E-03 1.375E-03

     negative rho (up, down):  2.807E-03 1.375E-03

     negative rho (up, down):  2.807E-03 1.375E-03

     negative rho (up, down):  2.807E-03 1.375E-03

     negative rho (up, down):  2.807E-03 1.375E-03

     negative rho (up, down):  2.807E-03 1.375E-03

     negative rho (up, down):  2.807E-03 1.375E-03

     negative rho (up, down):  2.807E-03 1.375E-03

     negative rho (up, down):  2.807E-03 1.375E-03

     negative rho (up, down):  2.807E-03 1.375E-03
 BEEFens 2000 ensemble energies
             -0.420027582341116E+00
             -0.106876475766574E-01
             -0.761339646016770E-01
              0.276889840494464E+00
             -0.139237713488683E+00
             -0.814197910541536E-01
             -0.326709102939298E+00
             -0.637135598437921E+00
             -0.200542900383823E+00
             -0.211110400574355E+00
             -0.224189693062430E+00
              0.618132975281217E-01
              0.193829238411077E-01
             -0.572568133960967E-01
              0.240514806824830E-01
              0.296499564543846E+00
             -0.114442396981051E+00
             -0.248151117341483E-01
              0.157831701674841E+00
             -0.701793990256621E+00
              0.356187347953572E+00
             -0.100134697072281E+00
             -0.391843521301922E-01
             -0.550996594948409E-01
              0.431837928579086E-01
             -0.308250543242932E-01
              0.559943834163307E+00
             -0.159563717988625E+00
             -0.422962077247524E-01
             -0.357347526947670E+00
              0.401068019810375E+00
              0.711575459497671E-02
             -0.261512459955054E+00
              0.101260065846095E+00
             -0.212051544573164E-01
              0.205103177441693E+00
              0.248540407002904E-01
             -0.140963724636907E-01
              0.256051348290882E+00
             -0.618092370969980E+00
              0.341910866328405E+00
              0.736378773560125E-01
             -0.112537392775905E+00
             -0.175291243270885E+00
              0.767985465753984E-01
             -0.129889431820739E+00
              0.331875980374598E+00
              0.229304577458517E+00
             -0.950738210252839E-01
             -0.215324501562690E+00
             -0.182772947595016E+00
             -0.248311318398668E+00
              0.166133007269776E+00
             -0.329076839210833E+00
              0.111628792454723E+00
              0.397052768143479E+00
              0.499707108790576E+00
              0.203965119242868E+00
              0.106176401883996E+00
              0.215827596271954E+00
              0.585477526389749E+00
              0.866150881662091E-01
             -0.346060535960736E+00
             -0.510419416372816E-01
             -0.197677201905870E+00
              0.380047906969150E+00
             -0.445823230014387E+00
             -0.358188803590040E+00
             -0.231216634605561E+00
             -0.168989622099354E+00
             -0.227763381474616E+00
              0.183555581665869E+00
              0.923338166832948E-01
              0.119579617282078E+00
             -0.243045658770221E+00
             -0.220088657485347E+00
             -0.380176147347387E+00
              0.172975249344774E+00
             -0.228483912321446E+00
              0.215559556293158E+00
             -0.622775511980831E-01
             -0.163702059064732E+00
             -0.299394115979753E+00
             -0.832301407274962E-01
             -0.114810536510074E+00
             -0.937496929346078E-01
              0.242210911979557E+00
              0.517863388500882E+00
             -0.315558901695750E+00
             -0.495725821463479E+00
             -0.110223585620254E+00
              0.680541681369587E+00
             -0.346926869123002E+00
              0.179872632944699E+00
             -0.746489256743712E-01
             -0.367150218092109E+00
              0.188239737709295E+00
              0.181695464405045E+00
             -0.768368533947354E-01
              0.158330695541450E+00
             -0.146717754422211E+00
             -0.418599696703001E+00
              0.668816179341689E+00
              0.277592387641568E+00
              0.105198082439037E+00
              0.771136892391464E-01
              0.156601670546121E+00
              0.511286927298595E+00
             -0.181204747223030E+00
              0.973405691994572E-02
             -0.863055155199855E+00
              0.106264756950515E+00
             -0.403188403240116E+00
              0.753743786114649E-01
              0.139614426199996E+00
             -0.241165913549929E+00
             -0.301523738914313E+00
              0.271093390272004E-02
             -0.197802715905450E+00
              0.300069991947203E+00
             -0.270221082858299E+00
             -0.755535420597329E-01
             -0.253032821534142E+00
             -0.166598193945930E-01
              0.443477545684774E-01
              0.155954755507269E+00
             -0.476725371598974E-02
             -0.482459509597670E-01
              0.442026360065364E+00
              0.584186600422453E+00
              0.311080479681631E+00
              0.370533762322825E+00
             -0.964142381410367E-01
              0.327019863172489E-01
              0.322687294617022E+00
              0.712862131856598E-01
             -0.492834389999061E+00
             -0.293556152785296E+00
             -0.310437000861831E+00
             -0.189622598655403E+00
              0.148966085712156E+00
             -0.782936893420662E+00
             -0.600414308841930E-01
              0.303683944711101E+00
             -0.265753782136093E+00
             -0.157965249098512E+00
              0.378454980950310E+00
              0.337440068645490E+00
             -0.168986197729636E+00
              0.256512228759922E+00
             -0.148436696554315E+00
              0.241023988418936E+00
              0.470916371269017E-01
              0.507524312048706E-01
             -0.516336625691664E+00
             -0.311087282078076E+00
             -0.557246132614670E-01
             -0.378049829141907E-01
             -0.284123476121834E+00
              0.716409323156776E+00
             -0.395401389365011E-01
             -0.148316998689582E+00
              0.227571305869968E+00
             -0.265477593365531E+00
             -0.242574144993541E+00
              0.221244883410660E+00
              0.728078550624609E-01
              0.692064581614340E-01
              0.112554906437445E+00
             -0.552009912959306E-01
              0.439784661575566E-01
              0.372302023202225E+00
             -0.151980999774681E+00
              0.157914070070337E+00
              0.557883275011317E+00
              0.185203528827991E+00
             -0.186751415362068E-01
             -0.131414154901304E+00
              0.993770753810256E+00
             -0.170608241238861E+00
              0.260601788539558E+00
              0.218670988440805E+00
              0.152130453501437E+00
              0.589014262006784E+00
              0.264360424111509E+00
             -0.335754040477230E-01
              0.156149479788874E+00
              0.328200018257550E+00
              0.232783506960965E+00
             -0.402862015358045E+00
              0.607743074570338E+00
             -0.554291866128663E+00
             -0.373956917602997E-01
              0.343956505074118E+00
              0.140738931204514E+00
              0.296645355547813E-01
              0.154933518718447E+00
              0.760706293059732E-01
              0.193807142987759E+00
             -0.388787079761452E+00
              0.273764061887065E-01
             -0.136137292332054E+00
             -0.222959604044124E-01
             -0.318896045782968E-01
             -0.865911809221865E-01
             -0.454499922774700E-01
              0.528389195437775E+00
             -0.305426514945624E-01
             -0.178501897433354E+00
             -0.987197940926254E-02
              0.858126601504507E-01
             -0.415965721120113E+00
             -0.393254606209758E+00
             -0.209170353265165E+00
             -0.385235714468358E+00
             -0.111443503625339E+00
             -0.234792821212877E+00
              0.120719651453941E+00
              0.275607226358712E-01
             -0.868042507136286E-01
             -0.440537092600500E-01
              0.238261057025511E-01
             -0.580680977839900E-01
              0.413747801604676E+00
             -0.571968320030666E+00
             -0.810771470236635E-01
             -0.763084892137370E-01
              0.100237105027785E+00
              0.140378778176575E+00
             -0.335930013516478E+00
             -0.440955917611048E-01
              0.283689052006874E+00
             -0.105828050640027E+00
              0.689747156861689E-01
              0.209134523220906E+00
              0.547687691644438E-02
              0.720978963633661E+00
             -0.287259462462459E-01
             -0.219362740182499E+00
             -0.163023967293974E-01
             -0.186436417603425E+00
              0.344191825466698E+00
             -0.342058587170031E+00
              0.999515469285548E-01
              0.275552131668704E+00
             -0.852553875173148E-01
              0.735906060098578E+00
              0.803762197127948E+00
             -0.463370478818308E+00
              0.357294961589799E+00
              0.168520174867015E+00
             -0.371413833536409E+00
              0.975789118440199E-01
              0.288836887826906E+00
              0.321054145574514E+00
              0.446880049799576E-01
              0.123451782741653E+00
              0.492698088806995E+00
             -0.138521762945733E+00
              0.452869398255362E-01
              0.419879453158920E+00
             -0.237382562839514E+00
             -0.183511325467047E+00
              0.393739502245659E+00
              0.199167482569295E+00
              0.479362574502677E+00
              0.255732571993131E+00
              0.973227091189353E-01
              0.147694072361287E+00
              0.282144545234759E+00
             -0.354467267171906E+00
              0.549914566266918E-01
              0.216543680057005E+00
              0.554050095514373E-01
              0.159858390333287E+00
             -0.406745313128536E+00
              0.186805460880604E+00
             -0.268275090579808E+00
             -0.185521530320453E+00
              0.128279919147586E+00
             -0.396300191991592E-01
              0.376648714495256E+00
             -0.531112860681802E-01
              0.181163130848058E+00
              0.171391953373090E+00
              0.463321869959712E+00
              0.326145354241866E+00
              0.343386564339483E+00
              0.227789106468634E-02
             -0.835775539040695E-01
             -0.182881466308411E+00
              0.536414365994352E+00
              0.529086851161400E+00
              0.250791985011414E+00
             -0.198952320781045E+00
              0.306695466589977E+00
              0.372506051573602E-01
              0.989136455738752E-01
              0.467551985322547E+00
             -0.331258538945328E-01
             -0.628258262461705E-01
             -0.105598178061987E+00
             -0.412717432235657E+00
              0.602325935986997E+00
              0.339899578867065E+00
             -0.417401939073743E+00
             -0.150949387461927E+00
              0.164242609373649E+00
             -0.719378774579194E-01
              0.429463767814846E+00
              0.885443297567901E-01
              0.517630743167651E+00
              0.207865719196033E+00
             -0.125969034738559E+00
              0.855133917555454E-01
             -0.505535158504418E-01
             -0.143828818327866E+00
              0.110144784842493E+00
              0.789868258393454E-01
              0.570208682483034E+00
              0.481588030107377E+00
              0.367358701889269E+00
              0.415353406189229E+00
              0.455025694214298E-01
             -0.155626174375390E+00
              0.723075885970037E-01
             -0.206455792160574E+00
             -0.384208125972822E+00
             -0.352377604636791E+00
             -0.217264918189428E+00
             -0.695922317337982E+00
             -0.250911168801849E+00
             -0.560379213448507E+00
              0.132681463825214E+00
             -0.287475352715755E+00
              0.353708928502783E+00
             -0.642058790508034E+00
             -0.167774602835471E+00
              0.205009849436602E+00
              0.133607529262308E+00
             -0.587584385069655E+00
              0.316787029415365E+00
             -0.181298490989642E+00
              0.369833098285362E+00
             -0.178033435453286E+00
             -0.500768913893131E+00
              0.135314750317158E+00
             -0.431260148022796E+00
              0.335459851076703E-02
             -0.208040754408822E-01
              0.265622144422509E+00
              0.796844091722118E+00
             -0.261724810653100E+00
             -0.226710701622172E+00
             -0.609055747925416E-01
             -0.497469928233321E-01
             -0.495833005809318E+00
             -0.357750669102784E+00
              0.306872328782498E+00
             -0.866512777614010E-01
              0.149639952015515E+00
             -0.319888857561694E+00
             -0.104616187595567E+00
             -0.261559523704755E+00
              0.283280349906303E+00
              0.640218337219602E-01
             -0.157657562390909E+00
             -0.132812474999241E+00
              0.109039538439082E+00
             -0.598884459970372E-01
              0.253844374279058E+00
             -0.179646760514181E+00
              0.903049823062223E-01
              0.220614659757680E+00
              0.713457593254816E-01
             -0.171399113052665E+00
              0.979767078723532E+00
              0.399963622960782E+00
              0.705222390128619E-01
              0.213319929090510E-01
             -0.392639925400185E+00
              0.216205178704178E+00
             -0.508313732396199E+00
             -0.230688263641121E+00
             -0.397088873351908E+00
             -0.108224508378846E+00
              0.367918208614052E+00
             -0.379733184770144E+00
              0.198382951660819E+00
             -0.271384553482177E-01
              0.288248024056248E-03
             -0.182437136313794E+00
             -0.248179728871053E+00
             -0.604542465914446E-01
             -0.188126711133358E+00
             -0.129408700000925E+00
             -0.248597414192501E+00
             -0.203811742757408E-01
             -0.195683994216762E+00
             -0.301787518759924E+00
              0.143412443496652E+00
             -0.603916419792079E-01
              0.166254657033490E+00
              0.511642366474072E-01
             -0.485094026190257E+00
             -0.310967847008955E+00
             -0.334946896176663E+00
              0.192883023527592E+00
             -0.506818942801146E-01
             -0.393866758897120E+00
              0.356489716743815E+00
             -0.267500994245659E+00
              0.378932748088958E+00
             -0.202165095469680E+00
             -0.330593775927475E+00
              0.144955019897607E+00
             -0.469184987248650E+00
             -0.191392465609728E+00
              0.363663446172760E+00
              0.131177098495367E+00
             -0.293169709621674E+00
              0.385794963753983E+00
             -0.100732025832931E+00
             -0.245658376906170E+00
             -0.197808502571113E+00
             -0.341131002868040E+00
              0.166825457185176E+00
             -0.537418512022257E+00
             -0.478128907535864E+00
             -0.397868035634361E-01
             -0.171634377665533E+00
             -0.398804932138624E+00
              0.498925997939240E+00
              0.884931229898704E+00
             -0.105941139495676E+00
             -0.188489376768972E-01
             -0.383456068165111E+00
              0.412738272056411E+00
              0.152158007522283E+00
             -0.149308851597361E+00
             -0.210350101246664E+00
              0.817051287663260E-01
             -0.374386174587709E+00
             -0.557903868921330E-01
             -0.540912133575495E+00
              0.220624671499941E+00
              0.605024711967164E-01
             -0.474410448665332E-01
             -0.847792583631226E-01
             -0.296067538536429E+00
             -0.936090489563051E-01
              0.894960465463871E+00
             -0.818682550902863E-01
             -0.319773820419496E+00
             -0.443686606440598E+00
              0.955466135323426E-01
             -0.249371210097460E+00
              0.758444336139417E-01
              0.228856420159315E+00
              0.225877773460550E-01
              0.245261837466890E+00
              0.132626944552966E+00
              0.360095766158311E+00
              0.130707022129933E+00
             -0.234955717418238E+00
              0.369559958806570E+00
              0.213287627048556E+00
              0.846906444515760E-01
              0.219892702378922E+00
             -0.214836514110302E+00
              0.459167528268595E+00
              0.184260593609045E+00
             -0.239659027342288E+00
             -0.377353302803062E-01
             -0.944286741474218E-01
              0.750341266471770E-01
             -0.157987646413767E+00
             -0.101900729214850E+00
             -0.987197209089108E-01
              0.505383682072758E+00
              0.393495922667871E+00
             -0.405940928783190E+00
             -0.683033162363513E-01
             -0.315994178697705E+00
             -0.789207375996268E-01
             -0.128526988706272E+00
              0.894580938715994E-01
             -0.261756676192720E-01
             -0.198251703193291E+00
              0.130205691805110E+00
             -0.783833692058601E-01
             -0.457291942371603E-01
              0.550188243445136E+00
              0.811880646395030E-01
             -0.525212672907457E+00
             -0.225792997977442E+00
              0.603610572855822E+00
              0.141995738946692E+00
             -0.511559395986763E-01
              0.708638628048434E+00
             -0.105143706604122E+00
             -0.349379087342754E-01
             -0.912011437495730E-01
              0.117913787771114E+00
              0.221400818161160E+00
              0.112376991663203E-01
              0.185011716688430E+00
             -0.479177633324153E-01
             -0.272566504179507E+00
             -0.242965167004413E+00
             -0.316988336122518E+00
              0.247132703134756E+00
              0.952645812173418E-01
              0.243988320889182E+00
              0.109642944948010E+00
              0.583614526462004E+00
              0.136869484089127E+00
             -0.475776319012622E+00
             -0.213297992624243E+00
             -0.244932116998703E-02
             -0.185155264196285E+00
              0.409977197298738E+00
             -0.118107686024524E+00
              0.113383605379638E+00
              0.362513577240096E+00
             -0.533477036379016E+00
              0.948013877434968E+00
              0.123402739521942E+00
              0.140373562810897E+00
              0.244704685441017E+00
              0.166909868655543E-01
             -0.142712334795203E-01
              0.211981875444676E+00
             -0.226849276845652E+00
              0.566176114177682E+00
              0.492598392404918E+00
             -0.249292989642391E+00
              0.118784840687973E+00
              0.469227867075913E+00
             -0.132919907267350E+00
              0.134753236654805E+00
              0.193540306435924E+00
              0.262912158286815E+00
             -0.467770992003380E+00
             -0.150306489279397E-01
             -0.153502686019030E+00
             -0.567293471014478E-01
             -0.558376845990010E-01
              0.627691679981011E-01
             -0.757083773817504E-01
             -0.194284884514031E+00
              0.121229927753790E+00
              0.230257218155379E-01
              0.337565863600883E+00
             -0.312915192028206E+00
              0.297943955287252E+00
              0.347484720538673E+00
             -0.489782512592687E-01
              0.453168545901015E+00
             -0.420315846222871E+00
             -0.654676157351961E+00
             -0.481009872496372E-01
             -0.498250903743958E-01
             -0.671255096709711E-02
              0.490034254881128E+00
              0.492522776920440E-02
              0.266718420955505E+00
              0.421514872125165E+00
              0.249396165135402E+00
             -0.381396937788927E-01
              0.378782026451833E+00
             -0.109072262481764E+00
             -0.265860624432729E+00
             -0.220626147354069E+00
              0.793549651329575E-01
              0.237461198146641E+00
             -0.821821672158884E-02
              0.213160855373558E+00
              0.194168357078244E-01
              0.331028823172083E+00
              0.104516921877564E+00
              0.406371454693417E-01
              0.211012075478405E-01
              0.184515271374706E+00
              0.253011172935172E+00
              0.824676730845688E-01
             -0.256642649096173E-01
             -0.346146915680039E+00
              0.190905301327128E+00
              0.135745383220833E+00
              0.211730333303749E+00
              0.187245720566642E+00
              0.219235717633892E+00
             -0.632278031515963E-01
              0.232811781015151E+00
             -0.181611935223239E+00
             -0.131040565323683E-01
             -0.334760463177177E+00
             -0.217886324198342E+00
              0.290573832056874E+00
             -0.558274987762922E+00
              0.144280316581465E+00
              0.914437878399683E-01
              0.550356444344602E+00
             -0.522793961793682E-01
              0.216477811576616E+00
             -0.573684652949380E-01
             -0.312965149512492E+00
             -0.405272778204653E+00
             -0.111634227334248E+00
             -0.588533091280094E+00
              0.347970632981243E-01
             -0.125246123071054E+00
              0.199967397459416E+00
              0.155018404733769E+00
             -0.195349959218732E+00
             -0.203153643070435E+00
              0.283411339240998E+00
             -0.366057488845257E+00
             -0.863542186379294E-01
             -0.948775484309425E-01
              0.197042572966285E+00
              0.557467109204706E-01
              0.152596597833121E-01
             -0.929343337926501E-01
              0.335596219949627E+00
             -0.415264352360349E+00
              0.403372835062812E-01
              0.391040192389168E+00
             -0.243066235974046E+00
              0.247806642674913E-01
              0.335508294278037E-01
             -0.415903398995488E+00
             -0.230494391098402E+00
              0.123490376090241E-02
              0.213804177564109E+00
              0.219480988054404E+00
              0.247835438979511E-01
             -0.915114349228694E-01
              0.115812488855328E+00
             -0.261624876544624E+00
             -0.521817210780677E-01
             -0.342132240602279E+00
             -0.146799369701250E+00
              0.318172237691726E+00
             -0.196116596901339E+00
              0.460154660844242E+00
             -0.158637518328036E+00
              0.208699139297908E+00
              0.167186453004834E+00
             -0.372649800505873E+00
             -0.155488728413923E+00
              0.513714042611557E-01
             -0.270285553477689E+00
             -0.289208608269362E+00
             -0.570029968713394E+00
             -0.360633583891663E+00
             -0.309578272625217E+00
             -0.294976819102438E+00
              0.570886685456062E-02
              0.178207335706877E+00
              0.848374315115167E-01
              0.192459007114022E+00
             -0.385682350348717E+00
              0.848791176581658E-01
              0.192848214199155E+00
             -0.447406675471904E+00
             -0.339939625086408E+00
             -0.246216675707229E+00
             -0.240586163864063E+00
              0.811271540960881E-01
             -0.287602059913539E-01
             -0.272918334670904E+00
              0.162878083850727E+00
             -0.155167082288407E+00
              0.335027129467873E+00
             -0.554503175688263E+00
              0.402120145237620E+00
             -0.819251147947830E-01
             -0.306880207191633E+00
             -0.187636023255696E+00
             -0.281678575792915E-01
              0.331863928252346E+00
             -0.440026571044458E+00
             -0.787424985653564E-01
             -0.101414434357903E+00
              0.245630663695704E+00
              0.496064753286873E+00
             -0.648932495644966E+00
              0.584033826371109E+00
              0.230800176738214E+00
             -0.490169798617088E+00
             -0.190169633435321E+00
              0.520480800270281E+00
              0.353593893045850E+00
             -0.148403463038578E+00
             -0.512341110641543E-01
              0.147608464887048E+00
              0.523674236205006E+00
             -0.400030919748399E+00
              0.818666382807065E-01
             -0.533435979926086E-01
              0.156850182098942E+00
             -0.443646566473317E+00
             -0.502373535892381E-02
             -0.162034174615111E+00
              0.313956644249231E+00
              0.232321292455884E+00
             -0.573043385174930E+00
             -0.295364234808211E+00
             -0.126791522620455E+00
             -0.295910407382272E+00
             -0.811499872194446E-01
             -0.112399040221757E+00
              0.306603840178690E+00
              0.292710410189108E+00
             -0.928134965089278E-02
             -0.286142212418266E+00
             -0.544733290933987E+00
              0.339943223974891E+00
             -0.286397962721076E+00
             -0.250658171041266E+00
              0.510422183902359E-01
             -0.240500323490099E+00
             -0.252860106013449E+00
             -0.217174080118842E+00
             -0.355553653663993E+00
             -0.141696905779127E+00
             -0.330219179318762E+00
              0.356319393259025E+00
              0.378031287917836E+00
             -0.837352511138634E-01
             -0.118608722258423E+00
              0.241580415953999E-01
              0.274805817954627E+00
             -0.549330208387686E+00
             -0.168412016250845E+00
              0.314656678002833E+00
              0.457605400379338E+00
             -0.525447471004807E-01
              0.745919492937803E-01
              0.346399080741136E+00
              0.913378571079341E-01
              0.373970889632207E-01
             -0.236794316019192E+00
              0.648036826998530E-01
             -0.204593516203001E+00
             -0.501894091627832E-01
             -0.142096156028277E+00
             -0.815423446665635E-01
              0.151265654834406E+00
              0.507540889018266E+00
             -0.570337394154206E-01
             -0.137415582909728E-02
             -0.599237842944365E+00
             -0.128839931589209E+00
             -0.228249664717522E+00
             -0.258082388783065E-02
             -0.310841459592147E+00
              0.605945458062287E+00
              0.568545478847349E+00
              0.126320064864017E+00
             -0.166655458641400E+00
              0.113162350700530E+00
              0.119887792079481E+00
             -0.292478175253301E+00
             -0.529179593353066E-01
              0.142471458223289E+00
              0.644799921181396E-01
              0.315475860076655E+00
              0.241975852198132E+00
             -0.145866915312278E+00
              0.128656301664935E+00
             -0.635272068397636E+00
             -0.220462529111372E-01
              0.586471637095745E+00
              0.127926689182690E+00
             -0.211295313170012E-01
              0.167759875358765E+00
             -0.130317012366977E+00
              0.543957868276475E+00
             -0.147029099760245E+00
              0.478983992968325E+00
              0.248897510086035E+00
             -0.298082636127013E+00
              0.220603213918878E+00
             -0.169533006480498E+00
             -0.430348215092746E+00
             -0.549876365029125E-01
             -0.344067602047342E+00
             -0.336112631238089E+00
              0.188339883167343E-02
              0.252500440179048E+00
             -0.970679453300105E-01
             -0.192705942989415E+00
              0.418438402669041E-01
             -0.405444511289198E+00
             -0.169206212895493E-01
             -0.553920050658652E+00
              0.343077220497779E+00
             -0.401549369352666E-01
             -0.314371766169505E+00
             -0.102286117295702E+00
              0.946967341215708E-01
             -0.252677733778369E+00
             -0.280585057892391E+00
              0.587548476404551E+00
             -0.185207207526977E+00
             -0.238319699691194E+00
              0.207775780623976E+00
             -0.156356072528324E+00
              0.365605741445672E+00
             -0.191001114095064E-01
              0.584281516833318E-04
              0.713042241526781E+00
             -0.412317446586772E-01
             -0.255662879073681E+00
             -0.340991215170873E+00
             -0.329170073058277E+00
             -0.239781422672008E+00
              0.193200832451597E+00
              0.217742015324124E+00
              0.193254098270844E+00
              0.469314733519879E+00
              0.367778885756009E-01
              0.155055305047056E+00
             -0.365909210307857E+00
              0.755457469362097E-02
             -0.837420655528925E-01
             -0.167402592778347E+00
             -0.619621445066256E-01
              0.212724965008619E+00
              0.243690945357868E+00
             -0.263386130294187E-01
              0.849588174913363E-01
              0.167302120745953E+00
              0.210540562138822E+00
             -0.139771547353077E+00
             -0.591883610234691E-01
              0.160492819421532E-02
             -0.176840480437322E+00
             -0.217971000191275E-01
             -0.292794540642652E+00
              0.507251151059041E+00
              0.378700611296749E+00
             -0.110277881865321E+00
              0.114154112246905E+00
             -0.377292383156548E-01
             -0.228857588252666E+00
              0.254670098548575E+00
             -0.589290818812200E-01
              0.227393129323552E+00
             -0.291428171382512E+00
              0.978654865121782E-01
             -0.378915989146016E-01
             -0.333493193904098E+00
             -0.141371511101752E+00
              0.131143043362678E+00
             -0.653858573157926E+00
              0.236804362719443E+00
              0.289305935649247E+00
             -0.720615661028785E-01
             -0.370581226782978E-01
             -0.129950005541091E-01
              0.179116202498089E+00
             -0.203627952151825E+00
              0.186007638897508E+00
              0.219783761399889E+00
             -0.550744420616317E+00
             -0.230160713102934E+00
              0.152326834419989E+00
             -0.919610241199296E-01
              0.333096385077654E+00
             -0.403308737038031E+00
             -0.666754503160769E-01
             -0.239620305847963E+00
             -0.850467704074660E+00
              0.508467618593349E+00
             -0.387936288101583E+00
             -0.440688870908659E+00
              0.299147870386966E-01
              0.839106173873036E+00
              0.494272964189425E-01
             -0.235814031813610E+00
             -0.459428681063834E-02
             -0.330874240449907E-01
             -0.547070667759296E+00
             -0.351680607148265E+00
              0.560240388833360E+00
             -0.832654737530623E-01
             -0.211043294246428E+00
              0.303088136985190E+00
             -0.212538805959238E+00
              0.209122469280898E+00
              0.288545479474402E+00
             -0.329162233921659E+00
             -0.198837497921667E+00
             -0.198730962099420E+00
             -0.122772508577626E+00
             -0.134072739845339E+00
             -0.142208091206747E+00
              0.129025242534224E+00
             -0.226182643739439E+00
              0.173896272101271E+00
              0.333534734994780E+00
             -0.210553111790108E-01
             -0.135951591489898E+00
              0.102868241341788E+00
              0.343507278435975E+00
              0.365128058807597E+00
              0.832758431802760E-01
             -0.854760606087961E-01
             -0.886515823023506E-01
             -0.352818398952770E+00
              0.265644870047326E+00
             -0.165297313182802E+00
              0.147618320447089E+00
             -0.687577515724329E-01
              0.156901632161397E+00
              0.113172665458313E+00
             -0.545363969396846E+00
             -0.156591405757997E+00
             -0.498905084928888E+00
             -0.277379543435336E+00
              0.316010191277301E-01
             -0.128489036537234E+00
              0.230708728019103E+00
             -0.172915439235951E+00
              0.168451747576954E-01
              0.401205268993987E-01
              0.447349386408103E+00
              0.222881735295089E+00
             -0.233462987641661E+00
             -0.178015701879959E-01
              0.107422756378313E+00
              0.220887435187750E+00
              0.399073819544515E-02
              0.375248195036192E+00
              0.181193700807684E+00
              0.590487467328612E+00
              0.231192322529093E-01
              0.382679702286647E+00
             -0.174796828611416E+00
             -0.250253180068350E+00
              0.108419215241127E-01
              0.859075055038367E-01
              0.140123774668411E+00
             -0.148041757975572E+00
             -0.677370442242931E-01
              0.140587765353524E+00
             -0.306499255070875E+00
             -0.392109936107981E+00
              0.520570449326604E+00
             -0.314370229127907E-01
             -0.228568212822121E+00
             -0.461896042947083E-01
             -0.100189057208580E+00
              0.301748511207278E+00
              0.238444698951875E+00
             -0.116866922826476E+00
             -0.159071668796859E-01
             -0.161125757444115E+00
             -0.240940271331248E+00
             -0.150462424344709E+00
             -0.638798832242232E+00
              0.120654727569049E-01
             -0.405294606487087E+00
             -0.384441151379131E+00
             -0.229815423301158E+00
              0.157228498693410E+00
             -0.239591558136510E+00
              0.166505318561300E+00
             -0.425441611769437E+00
              0.361004098938578E-03
             -0.277560145294786E+00
              0.380231936687744E-01
              0.505670541376289E-01
              0.229345491121525E+00
             -0.129922293671600E+00
             -0.127258812353553E+00
              0.209474384728011E+00
              0.372352295814613E+00
              0.207736245010582E+00
              0.813891131943310E-01
             -0.478612346950353E+00
             -0.107751995986541E+00
             -0.167677643760169E+00
             -0.396306275655976E+00
              0.270983139139365E+00
             -0.220423385189874E+00
             -0.496147275319776E-01
             -0.186465422304778E+00
             -0.636534053430438E+00
              0.370590717594182E+00
             -0.131244026686383E+00
              0.240586796527366E+00
             -0.481171461447803E+00
              0.416993713040393E+00
              0.353129252426418E-01
             -0.153298897008361E+00
              0.727905945277363E-01
             -0.119415100013258E+00
             -0.383492463755472E+00
              0.117718041289306E+00
              0.269795877198472E+00
             -0.171755721644313E-01
             -0.214664087248533E+00
             -0.101865592960864E+00
              0.140962306010195E+00
              0.251249809370260E+00
              0.392634213976866E+00
              0.132794486396608E+00
             -0.152203198762280E+00
              0.659603249676850E+00
              0.122409825916658E+00
              0.312751482962182E+00
             -0.943594939310035E-01
              0.202076827790673E+00
              0.165367152200206E+00
             -0.386719171185813E+00
             -0.147307439680200E+00
             -0.259214739942554E+00
             -0.279058048456415E+00
             -0.699021155456250E-01
             -0.498836178588231E-01
             -0.313205583256111E+00
             -0.703408744387412E+00
             -0.165752273683781E+00
              0.924625053893364E-01
              0.407275611656579E-01
              0.104872662450596E+00
              0.249661103232446E+00
              0.717529981255886E-01
              0.191915788931215E+00
             -0.293437329517398E+00
              0.272197951618041E+00
             -0.250301261628179E+00
             -0.413031714763596E+00
              0.144249470474107E+00
             -0.271688303065649E+00
             -0.258321654643820E+00
             -0.101672809506014E+01
             -0.377577727119467E-01
              0.544789082920043E+00
              0.235231156099988E+00
             -0.562851247266716E-01
             -0.821805972726852E-01
              0.293760447447948E+00
              0.410981475237802E+00
             -0.233607397758784E+00
             -0.925771482849354E-01
             -0.242697702476543E+00
             -0.207526411613607E+00
             -0.182901593680526E+00
              0.730797679268128E-01
              0.436003590426170E+00
             -0.422438221214579E+00
             -0.354835666373552E+00
              0.243368693843884E-01
             -0.112241426170264E+00
             -0.121255149348945E+00
             -0.560735704139265E+00
              0.411538645983756E+00
              0.110706594808554E+00
              0.593593829214966E-01
              0.333649719782504E+00
             -0.207261162920143E+00
              0.225769264222348E+00
              0.185355925287897E+00
              0.151965975473709E-01
             -0.681074940376229E-01
              0.419699783269531E-01
             -0.104769244791782E+00
              0.347430744504434E+00
             -0.251823052562394E+00
              0.302198785418779E+00
              0.643295780209381E-01
              0.123260515730007E+00
              0.113708163935872E+00
             -0.508256589904382E+00
              0.688726055370454E-01
             -0.430147323379253E+00
             -0.304786304179815E+00
             -0.310008679273693E+00
             -0.353431161810510E+00
             -0.214101581427695E-02
              0.131373333277884E+00
              0.317003425453871E+00
              0.405132390310669E-01
              0.949702743611554E-01
             -0.437635363703735E+00
             -0.195526951434300E+00
              0.195459173539102E+00
             -0.445711957549741E-01
             -0.297141352934983E-01
             -0.611447682706756E-01
              0.228659034123970E+00
             -0.578217240965964E+00
              0.957869226574611E-01
              0.119399634688868E+00
              0.239476006826884E+00
              0.244708840212630E+00
             -0.360779050161684E+00
              0.108826846923659E+00
              0.537934304407521E-01
              0.606273171753382E-01
              0.389116574346913E-01
             -0.125044484322098E+00
             -0.304725381666264E+00
              0.117600987452834E+00
              0.354226022330761E+00
              0.151066284369552E-01
              0.968698413132394E-01
              0.643655847863889E-01
             -0.206106099168571E+00
             -0.220836605718836E+00
             -0.797714417141673E+00
             -0.249784662028333E+00
             -0.398374495341353E+00
             -0.390545979103254E-01
             -0.450917462645387E+00
              0.480808232207611E+00
             -0.221849636624890E+00
             -0.346782482155336E+00
             -0.990276482507774E+00
              0.428912211868770E+00
              0.994399311420209E-01
              0.762528975979554E-01
             -0.380177616862139E+00
              0.126681531375548E-01
             -0.101646395247670E+00
             -0.191236728810417E+00
              0.524852663633945E-01
              0.204209438449062E+00
              0.320938969661474E-01
             -0.142097085722136E+00
              0.332982418348413E-01
              0.880051185452957E-02
              0.459439617854298E-01
             -0.440513813256863E+00
              0.473754835253185E+00
             -0.264274259132946E+00
             -0.167821395267991E+00
             -0.359919265377911E+00
             -0.719356426145160E+00
              0.270624601595564E-01
             -0.364138605976129E+00
             -0.107953530263088E+00
              0.184466515477303E+00
             -0.179593451802714E+00
             -0.912288622559068E-01
             -0.934787939901565E-01
             -0.118481038523035E+00
              0.309350976669468E-01
              0.334482582777899E+00
             -0.317846107079599E+00
              0.704142385157359E+00
             -0.159261110147418E+00
              0.195304068033451E+00
             -0.147845771979764E+00
              0.768232582341952E-01
             -0.750478620672972E-01
              0.264049095029645E+00
              0.409963291304749E+00
              0.109697637478453E+00
              0.276766807771047E+00
             -0.165424230952889E+00
             -0.524887748420408E-01
             -0.165776963838326E+00
              0.395385010434936E+00
              0.348958231966883E+00
              0.249775298043459E+00
             -0.868157860769010E-01
             -0.155622320042751E+00
              0.142635649600056E+00
             -0.179941756548505E+00
             -0.924379027950346E-01
             -0.316435798451524E-01
             -0.252452604787241E+00
              0.308246880906039E+00
             -0.762352111686816E-01
              0.228098139651369E+00
              0.156166799600871E+00
              0.895997206123097E-01
             -0.220319582447770E+00
              0.149621015239379E+00
             -0.808435969296601E-01
             -0.400518196408255E-01
             -0.157669097275015E-02
             -0.301461216807050E+00
              0.484777973417166E+00
             -0.174443084463206E+00
              0.222578675818994E-01
              0.175724497049078E+00
              0.130393606064877E+00
              0.495166602733589E+00
             -0.163520565273169E+00
              0.481973548526254E+00
              0.429039150756683E+00
             -0.598347142443240E+00
              0.381742799857340E-01
             -0.106805570062316E+00
              0.722044136780362E-01
              0.118913992436910E-01
              0.147913384488645E+00
              0.420558832176965E+00
              0.650969581210159E+00
             -0.458031414107293E+00
              0.484337328622197E+00
             -0.669097113741016E+00
             -0.559753112681851E+00
             -0.106771385898484E+00
              0.142658046688608E-01
              0.529482051085092E+00
              0.183826356783335E+00
             -0.618854334137702E-01
             -0.524232630066052E+00
              0.423713276047147E+00
             -0.248157663120283E+00
              0.230000553881098E-01
             -0.237674594073620E-01
              0.844278692254880E+00
             -0.131021903154239E+00
             -0.674009913971619E+00
              0.199586605494702E+00
             -0.104740306415756E+01
              0.821990968962779E-01
             -0.253074396469567E+00
             -0.106378714810694E+00
             -0.163489261601967E+00
             -0.379722055412431E+00
              0.223754974553366E+00
             -0.227524597582078E+00
             -0.108023988939898E+00
             -0.478450873063966E+00
             -0.222984058669515E-01
             -0.366554687347148E+00
             -0.484676788856860E+00
             -0.644251870123474E+00
              0.351583855543149E-01
             -0.239890541879271E+00
              0.832522931894624E-01
             -0.753147712310249E-01
             -0.535015193944701E+00
             -0.413762705209335E+00
             -0.370472044853934E+00
             -0.379346903340046E+00
              0.321403771175741E+00
              0.299608673896352E-01
             -0.320339642529652E+00
             -0.161880298933708E+00
             -0.187389086162773E+00
              0.273397502257160E+00
             -0.202700231878551E+00
             -0.633002249630085E-02
             -0.208192020468815E+00
             -0.260646762149746E+00
             -0.276036669116660E+00
              0.261737365262896E+00
             -0.692634093193127E-01
             -0.591495067771167E+00
              0.502442472018944E+00
              0.271705362950755E+00
              0.992628787013361E-02
             -0.528324183861976E+00
             -0.488260522013882E+00
              0.277855599662873E-01
              0.210705741881068E-02
             -0.224517676680219E+00
             -0.285481068233021E+00
              0.178762544862683E+00
             -0.236460164916550E-01
              0.169314105043961E+00
              0.297980820361647E+00
              0.231750180127017E+00
              0.139878434246860E+00
              0.129977409180417E+00
             -0.155269486174578E+00
             -0.996866264270210E-01
             -0.107749678582869E+00
             -0.250002948148021E+00
             -0.309173631756095E+00
             -0.377321776668273E+00
             -0.219529385973328E+00
             -0.894846351762717E-01
             -0.457128533153641E+00
             -0.133066481134601E+00
              0.226998061576105E+00
             -0.573836514969131E+00
              0.243683399067937E+00
              0.198735987917275E+00
             -0.471300540179485E+00
             -0.357088267496707E+00
             -0.165025453058965E+00
              0.597616336516298E-01
             -0.259358656996817E+00
              0.482893991982734E+00
              0.432708827323247E+00
             -0.491309117050910E+00
              0.244724900138639E+00
              0.234827170950221E+00
              0.558747006166413E-01
              0.104188841013643E+00
             -0.269740622290904E+00
             -0.992287093110890E-01
              0.467579124723745E-01
              0.138553387162411E+00
              0.254450346007451E+00
             -0.357764493290218E+00
             -0.823557643611359E-01
              0.875247002697175E-01
              0.772761803137807E-01
             -0.250945563273543E+00
              0.112573786130524E+00
             -0.158568484794744E+00
             -0.111019486427640E+00
             -0.187911784102031E-01
             -0.394825690959149E+00
             -0.526538396146614E-02
             -0.245436734572912E-01
             -0.111137821160763E+00
              0.130659174735509E+00
             -0.333966575508686E+00
              0.379703965431618E+00
             -0.128824803529791E+00
             -0.885804308557868E+00
             -0.549699489969101E+00
              0.212875185684546E+00
             -0.286598708644414E+00
             -0.158463116125003E+00
             -0.144005196333035E+00
             -0.120848869577470E+00
             -0.677281961766817E+00
              0.113987758397238E-01
             -0.394824000318458E+00
             -0.207420846483621E+00
              0.131330194741787E+00
              0.520050120133400E+00
              0.368517108418983E-01
              0.341499425364599E-01
              0.397756084880377E+00
             -0.379404804368954E+00
              0.155063285136339E+00
              0.329233178127760E-01
             -0.368722553253586E+00
             -0.224507130455699E+00
              0.119081721739899E+00
              0.227457772236767E-01
              0.111265613724089E+00
              0.954878732164706E-01
             -0.151979356358625E+00
             -0.218912153994916E+00
             -0.305486574962196E+00
              0.319582604482064E+00
             -0.449475696122413E+00
             -0.318706031802303E+00
              0.106222829496243E+00
             -0.543510051595217E+00
              0.153506776188054E+00
              0.382722819748556E+00
             -0.912838556892967E-01
              0.149354711265591E+00
             -0.232379689889945E+00
             -0.147083794620068E+00
              0.716270274604045E-01
              0.228295029356214E+00
             -0.227639387160783E+00
              0.120008747420618E+00
             -0.903169513979916E-01
              0.756736766412152E-01
              0.973497932189743E-01
              0.511957916949584E-01
             -0.878317662003574E-01
              0.403651233311586E-02
              0.655709296704021E-01
              0.166844519372572E+00
             -0.448202892963893E+00
             -0.359611250524834E-01
              0.340458605461083E+00
             -0.553945205385875E+00
              0.210524572833464E+00
             -0.713059197829989E+00
             -0.840683307331477E-01
             -0.861578867143613E-01
              0.105017558444542E-01
             -0.814109846796500E-01
             -0.189293373402818E+00
             -0.783591988731813E-01
              0.769308358350270E-01
             -0.155940855263838E+00
              0.613570643588978E-01
              0.587562676250763E+00
             -0.344807164621012E+00
             -0.159137641842454E+00
              0.275827278877292E+00
              0.128457988623309E+00
              0.274429622604428E+00
              0.137875146447181E+00
              0.893198013020098E-01
             -0.851679970372750E-01
             -0.325903392526009E+00
             -0.300349262055528E+00
             -0.260769838095579E+00
              0.603642499718338E-01
             -0.276221514844869E+00
             -0.644670622411617E-01
              0.392015018094289E-01
              0.162807294598663E+00
             -0.349130180068621E-01
              0.384025293473365E+00
             -0.448114702770394E+00
              0.672195014437493E-02
             -0.569440096617688E-01
              0.210873334918758E+00
             -0.266806839322485E+00
             -0.184431688664599E+00
              0.604993738119913E-01
              0.278247817244262E+00
              0.497926334136040E+00
              0.189169446642713E+00
              0.304863378686164E+00
             -0.150289182994895E+00
              0.394294704873086E+00
              0.406770822610899E+00
             -0.393600448128550E-02
              0.178108962377432E+00
              0.244112191587225E+00
             -0.127986071030004E+00
              0.122158849760022E+00
              0.428690455351492E+00
             -0.121049072396191E+00
             -0.348149244032676E-01
             -0.403878307499069E+00
              0.135044815667397E+00
             -0.109808142900128E+00
              0.144888535767021E+00
             -0.425359275889714E-02
             -0.246030198104758E+00
              0.291006936419326E+00
              0.253732126094170E+00
             -0.211392907722650E+00
              0.114307234231761E+00
             -0.383449342955568E+00
             -0.347450969303268E+00
              0.162641292501100E+00
             -0.437619309359125E+00
             -0.239278428565500E+00
             -0.572355748109343E-02
              0.557320275098490E+00
             -0.133388931290881E+00
             -0.679485447759531E-01
             -0.147630720701535E+00
              0.699722502201472E+00
              0.132664956182787E+00
             -0.265887677233400E+00
              0.455092129986779E+00
              0.398130230619675E+00
              0.226406501566069E+00
              0.524757846554974E+00
              0.573858122869033E+00
             -0.132578565082327E-01
             -0.183290818498500E+00
             -0.154316698582475E+00
              0.180368199881211E+00
              0.243423365828308E+00
             -0.534918076744015E-01
             -0.165622469564914E+00
             -0.358559417180656E+00
             -0.120227256935649E+00
             -0.302892088562539E+00
              0.220341203929609E+00
              0.116224176608923E+00
              0.386668981574417E+00
              0.899585949498991E-01
             -0.129159846765365E+00
             -0.570076903117488E-01
              0.253749037160836E+00
              0.507195074895508E-01
              0.407624875003525E+00
              0.348551873218816E+00
             -0.476903929813424E-01
             -0.628693215765747E-01
             -0.656731513298774E+00
              0.306725808266438E+00
              0.164660724549215E-01
              0.359842330990424E+00
             -0.175515580910548E+00
             -0.449648459449868E+00
              0.124426537176352E+00
              0.483648825442182E+00
             -0.175741172980152E+00
              0.431452012974916E+00
             -0.465544264352466E+00
             -0.164983929456860E+00
             -0.549494172864509E+00
              0.958151430697166E-01
              0.336239707597175E-02
              0.769444458179211E-01
             -0.402633829013175E+00
              0.596665229996355E+00
              0.357870263041812E+00
              0.297829785474502E-01
             -0.367409913602144E+00
              0.125567373687973E+00
             -0.102090208325629E+00
             -0.107037524159267E+00
             -0.189150145484154E+00
              0.994849250699942E-01
             -0.120952158080418E+00
             -0.115677634221567E+00
              0.164775586255589E+00
              0.142193467457565E+00
             -0.582082847986522E+00
              0.115467822726015E+00
              0.418011867678704E+00
              0.265164610138795E+00
             -0.798436958503499E-01
             -0.201325402566549E-01
             -0.240338934978333E+00
              0.355773539809757E+00
              0.468784166669387E-01
             -0.727469694542138E-02
             -0.346056217788311E-01
              0.702153984066652E+00
             -0.709315784018572E-01
              0.142497503092404E+00
              0.479964090042366E+00
              0.621907619472298E+00
              0.386932149491858E+00
              0.244285187081005E+00
             -0.412941452803493E+00
             -0.307875560445434E+00
              0.244433544566842E+00
              0.396211669512136E-01
              0.189248953447866E+00
              0.648385302234433E-01
              0.420716054529188E+00
             -0.511894448073162E+00
             -0.313068458976460E+00
             -0.879729000265637E-01
             -0.563962511681008E+00
              0.119301693900655E+00
              0.311409496444394E+00
             -0.280896597642561E-01
             -0.124944774656063E+00
              0.123771429467532E+00
              0.852698585774781E+00
              0.231316141890728E+00
              0.121831243170829E+00
             -0.302718495444393E+00
             -0.357866574072807E+00
             -0.749380447252813E-01
              0.183472514218685E+00
             -0.435652246421663E-01
              0.181625507695358E+00
              0.224341902088442E+00
             -0.395669359466438E+00
              0.186832287311316E+00
              0.174751334003618E+00
              0.370474136439669E+00
             -0.700521391441620E-01
              0.462595553663139E-01
             -0.484780281645625E-01
             -0.289556936467435E+00
             -0.470795729092872E+00
              0.484126951607715E+00
             -0.698153166308819E-01
             -0.327379771110625E+00
              0.557378425778281E-01
             -0.216622400511167E+00
              0.542325889708245E+00
             -0.146570822365520E+00
             -0.238497188511082E+00
              0.241159993275116E+00
             -0.102745843666565E+00
              0.313873091214702E+00
              0.164358156929760E-01
              0.578689101397846E+00
              0.330784487060257E+00
              0.100383331734449E+00
             -0.263985458403440E+00
              0.196684941791836E+00
             -0.343546530037348E+00
             -0.100475062770259E-01
              0.423818376125217E+00
             -0.150731520592026E+00
             -0.278572050389335E+00
             -0.145458705864196E+00
              0.326014548508690E+00
              0.787218498761342E-01
             -0.520242774789383E+00
              0.236249692191909E+00
              0.274275095979748E-01
              0.780379779856822E-01
             -0.307447363543409E+00
              0.906285961308866E-01
              0.227386238936893E+00
              0.295469390656836E+00
              0.415373574685305E+00
              0.247662102826839E+00
              0.613971560720239E-01
             -0.364022676257425E+00
             -0.251875875534818E+00
             -0.399843483170164E+00
             -0.102392282969619E+00
              0.226879304955188E+00
             -0.554918130246218E-02
              0.322463699805521E+00
             -0.200106005464192E+00
              0.971819948683108E-01
             -0.172631231492537E+00
             -0.173178050761183E+00
              0.389204361328558E+00
              0.375843714590329E-01
              0.395412475493006E+00
              0.442517991447784E-01
              0.110158200956494E+00
             -0.934207074499627E-01
              0.389281474868431E+00
             -0.121898538143132E+00
              0.210901618718039E-02
             -0.495876691591781E+00
             -0.387045355322087E-01
              0.449670338790349E+00
              0.409108621905076E+00
              0.151563604594752E+00
             -0.101174747308085E+00
              0.310374075031136E-01
             -0.161309147300017E+00
             -0.156585712992501E+00
              0.569670141451621E+00
              0.574591570529908E-01
             -0.198514123900956E+00
             -0.670822544963181E+00
             -0.249015892118602E+00
             -0.246470897667589E+00
             -0.378446346863292E+00
             -0.386222634996398E+00
             -0.458238164710780E+00
             -0.285408593649818E+00
             -0.147094267252514E+00
             -0.309856098692097E+00
              0.271886031436330E+00
             -0.926757706258905E-01
             -0.522530466096184E+00
              0.269698339455072E+00
             -0.227841479524284E+00
             -0.508983627618153E+00
              0.654762549034386E+00
             -0.165282201648101E+00
              0.837326518256269E-01
              0.240924614291207E+00
              0.116051309571807E+00
              0.158979674682755E+00
              0.112212647315131E-01
              0.890050080068638E-02
             -0.820840235477335E-01
             -0.480127595640935E+00
              0.702009329924702E-01
             -0.757779545877142E+00
              0.480608369941541E+00
             -0.239790414389410E+00
             -0.114394374222392E+00
             -0.132825027428936E+00
              0.171698277463930E+00
             -0.893592935567302E-01
              0.175410706660489E+00
             -0.373294570602666E+00
              0.241715120797575E+00
              0.294084989153922E+00
              0.368232424919902E-01
              0.615801283343573E-01
              0.144760577308745E+00
              0.645080153070994E-01
              0.186638438564152E+00
             -0.353018714345221E-01
             -0.495640938575095E+00
              0.687463267275723E-01
             -0.256755535036212E+00
             -0.283083738368637E-01
              0.369333279181076E+00
             -0.513867579031388E+00
              0.226203485908465E-01
              0.323245147632722E-01
              0.565312581722623E-01
              0.191699956080085E+00
             -0.783777785918597E-01
              0.529867324519226E+00
              0.226165770976594E+00
             -0.864134900011934E-01
             -0.516941643158988E-01
              0.479851550615717E-01
              0.508211863021637E+00
             -0.296873014813090E+00
             -0.645504558220531E+00
              0.193072359112726E+00
             -0.349732466627539E-01
             -0.112679668254216E+00
              0.129848891736597E+00
              0.477501287032906E+00
              0.255843059112408E+00
             -0.118382098250796E+00
             -0.346674773293676E+00
             -0.864644378676440E-01
              0.165481097399328E+00
             -0.125543887700312E+00
             -0.490257579071451E+00
             -0.683136247863799E-01
             -0.636758361346155E+00
             -0.331185734462804E+00
              0.568488292251165E+00
             -0.348674537605408E+00
             -0.472073932617605E+00
             -0.351670271492346E+00
             -0.263690787381765E+00
              0.231403327694228E+00
              0.560013187643604E+00
             -0.698866242381990E-01
              0.157260399528586E+00
             -0.141376146635037E+00
             -0.426672743080797E+00
              0.337158192433384E+00
             -0.317122617301491E+00
              0.145567091655847E+00
              0.169051245621348E+00
             -0.118659195510456E+00
              0.238912303994419E+00
              0.240310606729719E+00
              0.807821884646673E+00
             -0.656774561067892E-01
             -0.368114239297231E+00
             -0.435563743561447E+00
             -0.132829049820980E+00
             -0.312857690687185E+00
              0.578919759444216E+00
             -0.291011506160199E+00
              0.630968026296148E-01
              0.425062501477202E-02
             -0.110402760219001E+00
             -0.562926245764779E+00
             -0.400809015836059E-01
              0.654541504603045E+00
              0.162190650438920E+00
              0.492290474142947E-01
             -0.385889961064826E+00
             -0.334010051401861E+00
             -0.132931711701824E+00
              0.272945433442040E+00
             -0.188446594190170E+00
              0.632959630486618E+00
             -0.316379691432836E+00
              0.139887537552513E+00
             -0.619998359414926E-01
             -0.367531253708047E+00
              0.448843143688373E-01
             -0.360509889829678E+00
             -0.473259151256580E+00
              0.821840437164849E-01
              0.166302816344555E-03
              0.315303471882196E+00
              0.190686636659930E+00
             -0.226199015660024E+00
              0.133410118645759E+00
             -0.583348310399171E+00
             -0.288874637267452E+00
              0.597715668954934E+00
              0.288099737081809E-02
             -0.134675201470116E-01
             -0.145245296278270E+00
             -0.183124085173247E-02
             -0.911304383523617E-01
              0.613205940365556E+00
              0.265967946904210E+00
             -0.489238786494597E-01
              0.240773927950348E-01
             -0.240713761785115E+00
             -0.670821976577893E-01
             -0.388284291436046E+00
              0.353608890258637E+00
              0.492568416430453E-01
              0.339962113534868E-01
              0.128064647400269E+00
             -0.114053836726088E+00
             -0.157233031885921E+00
              0.756895216993516E-01
             -0.729720159104892E+00
             -0.423890109141258E-01
             -0.623211075196528E-01
             -0.306496053491085E-01
              0.288793409660494E+00
              0.414654991724258E+00
              0.115082841180139E+00
             -0.592892581012807E+00
              0.399064288653429E+00
             -0.160356538373271E+00
             -0.231052241643944E+00
             -0.559016088891702E+00
             -0.164487825068306E+00
              0.415301389921708E+00
              0.234579076634778E+00
              0.138515178609946E+00
              0.236006283037395E+00
             -0.361581827217675E+00
             -0.319345502296548E+00
              0.420585967972882E+00
              0.268446315008734E+00
              0.285174081108623E+00
              0.707454021276482E-01
              0.721531763286360E-01
              0.330963426473986E+00
              0.634777065528338E+00
             -0.881067154670460E-01
              0.265086762663379E+00
             -0.218582664986444E+00
             -0.297421569496129E+00
             -0.223871679472779E+00
             -0.224650039076620E+00
             -0.922091689147886E-01
             -0.289015949396700E+00
             -0.117493715682394E+00
             -0.804436231035894E+00
              0.199004140591257E+00
              0.192830505636655E+00
             -0.211253232474248E-01
             -0.231793018412506E+00
             -0.116722143118729E+00
             -0.355519201380828E+00
              0.315144810367483E-01
              0.507218576895402E+00
             -0.116635133541431E+00
             -0.127753991025156E+00
              0.986170978622214E-01
             -0.334159175963560E+00
              0.547397900207147E+00
              0.105469537703102E+00
              0.134621832375741E-01
              0.339719666465483E+00
             -0.522680889956550E-01
              0.379414956867148E+00
              0.143081101405868E+00
              0.259162119530032E-02
              0.921170428688647E-01
             -0.941176078495563E-01
              0.418498860000542E+00
              0.444708417748307E-01
              0.154117211008817E+00
             -0.592437974213285E-01
              0.758684411573134E-01
             -0.613329340898889E+00
             -0.235802580125835E+00
             -0.325254030178537E+00
              0.323494688250338E+00
             -0.238030601199625E+00
             -0.340773770004427E+00
              0.386005908232442E+00
             -0.100821870206616E+00
              0.254557869375039E+00
             -0.571169287538046E+00
              0.109853919345898E+00
              0.138575166106241E-01
              0.348110102559684E-01
             -0.902990261408703E-01
             -0.308845178149055E-01
              0.341070098958161E+00
              0.291004723704686E-01
             -0.344562584899305E+00
             -0.150891484106005E+00
              0.101051956426227E+00
             -0.739545946708646E+00
             -0.544039184911006E+00
             -0.222665749881656E-02
              0.110215097442975E+00
             -0.350650838708576E+00
              0.566721140186344E-02
              0.646861788440780E+00
              0.175444782204478E+00
             -0.341780181521654E+00
              0.435901746982845E-01
             -0.652040102058271E-01
              0.990732589739551E-01
             -0.233204486266432E+00
              0.151885392658223E+00
              0.138909603373128E+00
             -0.626309609893927E-01
              0.723925348570575E+00
             -0.839811957760483E-02
             -0.200491713774830E+00
              0.232232359141784E+00
              0.274207727273738E+00
             -0.210409858091442E+00
             -0.281629964963301E-02
              0.640620502046946E+00
             -0.158692024485156E-01
              0.318745466261359E+00
              0.119891763181954E+00
             -0.381669726669173E-01
             -0.706353312846071E-01
              0.287700017739468E+00
             -0.392355347616399E+00
             -0.184413841565614E-01
             -0.141473489986747E+00
             -0.262247372705803E+00
              0.575167970570977E-01
              0.166663701595190E+00
             -0.362426458454044E-01
             -0.108614606599149E-01
             -0.265224629475434E+00
              0.758748751542666E-01
             -0.102593015413439E-01
             -0.134001542535256E+00
             -0.130957281266094E+00
              0.108728097558097E+00
              0.328935490074844E-03
             -0.260710202135643E+00
             -0.704753634915841E+00
              0.307006397119502E-01
              0.864287048205282E-01
             -0.338032052878528E+00
             -0.169973975905283E+00
              0.533415382455858E+00
              0.963948134047982E-01
              0.296147209920043E+00
              0.812100941858439E-01
              0.275152719131082E+00
              0.158806662579956E-01
             -0.252111222069022E+00
             -0.982051629196683E-01
              0.235336493436062E-01
              0.205588428270048E+00
              0.473263313662967E+00
              0.315406647021979E+00
              0.310289509986843E-01
              0.641796211176264E-01
              0.390476057697187E+00
              0.186917615017293E+00
             -0.431084052675295E+00
             -0.188303934024323E+00
              0.679890280465005E-01
              0.732320638784614E-01
              0.149231002589637E+00
             -0.326614670532833E+00
              0.175668571909960E-01
              0.279855145801710E+00
              0.301850497672968E+00
             -0.264401569073240E+00
              0.381401200633795E-01
             -0.697041145018407E-02
             -0.153596712313933E+00
             -0.129633331225036E+00
             -0.490900576420827E-01
             -0.101673106766552E+00
              0.902409571309770E-01
              0.271600763196636E+00
             -0.208161004048296E+00
              0.524050471663184E+00
              0.210477661140303E+00
              0.182766257601299E+00
              0.248621101975490E+00
              0.143341808483850E+00
              0.228075475813919E+00
              0.360170806747336E+00
             -0.317434565119667E+00
              0.405681971177037E+00
             -0.733450376546576E+00
              0.205435244933742E+00
             -0.670554696130520E+00
              0.511028653266678E+00
              0.527166410258603E+00
             -0.422381738895168E-01
             -0.306098463883590E+00
             -0.276454105621244E+00
             -0.330144912010550E+00
             -0.419643261386922E+00
              0.355597638105666E+00
              0.273888259267718E+00
              0.160173505540416E+00
              0.142122890817761E+00
              0.296604520667584E+00
             -0.271911067393367E+00
             -0.808023365245418E-01
              0.330717695318979E+00
             -0.811550610273960E-01
              0.307350174698457E+00
              0.502383727398659E+00
             -0.142926411394838E-01
             -0.498167939307987E+00
              0.511632532820783E-01
              0.167426940713628E-01
             -0.664732107403445E-01
              0.311834334759029E-01
             -0.418982112192345E+00
             -0.308639290303085E-01
              0.105080915900728E+00
              0.110608412807665E+00
              0.315802533568598E+00
             -0.265006447943481E+00
              0.316256700912892E+00
             -0.233269206767096E+00
              0.182381512945468E+00
              0.298101578285077E+00
 
 BEEF-vdW xc energy contributions
           1 :   -4.20475925507879     
           2 :    3.20371004499433     
           3 :   -1.88171520999036     
           4 :   0.788231748999719     
           5 :  -9.609072493485815E-002
           6 :  -0.254218838731449     
           7 :   0.374919564875248     
           8 :  -0.375123737655931     
           9 :   0.313577722991393     
          10 :  -0.229341108193290     
          11 :   0.139686051458495     
          12 :  -6.121868205302938E-002
          13 :  -1.832625437561575E-003
          14 :   3.859594839499536E-002
          15 :  -5.298633721328105E-002
          16 :   5.082878236516564E-002
          17 :  -4.716321234424203E-002
          18 :   4.470025604201577E-002
          19 :  -4.809643094512328E-002
          20 :   5.219770315973893E-002
          21 :  -5.590609294222570E-002
          22 :   5.334734875112890E-002
          23 :  -4.744926742501576E-002
          24 :   3.393888231753728E-002
          25 :  -1.290366117923991E-002
          26 :  -1.665033690578888E-002
          27 :   4.282572183514155E-002
          28 :  -5.891878957570462E-002
          29 :   6.086435733766393E-002
          30 :  -5.510636737064800E-002
          31 :  -0.574460975017538     
          32 :  -0.310294689626163     

     Writing output data file ./pwscf.save/
 
     init_run     :     74.73s CPU     77.38s WALL (       1 calls)
     electrons    :    544.05s CPU    575.88s WALL (       1 calls)
     forces       :     35.55s CPU     37.79s WALL (       1 calls)

     Called by init_run:
     wfcinit      :      1.92s CPU      1.96s WALL (       1 calls)
     potinit      :     65.18s CPU     67.34s WALL (       1 calls)
     hinit0       :      6.25s CPU      6.38s WALL (       1 calls)

     Called by electrons:
     c_bands      :    100.69s CPU    101.39s WALL (      11 calls)
     sum_band     :     34.47s CPU     37.35s WALL (      11 calls)
     v_of_rho     :    371.81s CPU    395.24s WALL (      12 calls)
     newd         :     10.36s CPU     13.40s WALL (      12 calls)
     PAW_pot      :      1.20s CPU      1.21s WALL (      12 calls)
     mix_rho      :     85.75s CPU     89.66s WALL (      11 calls)
     vdW_kernel   :     33.87s CPU     33.87s WALL (       1 calls)

     Called by c_bands:
     init_us_2    :      1.12s CPU      1.13s WALL (      48 calls)
     regterg      :     99.11s CPU     99.79s WALL (      22 calls)

     Called by *egterg:
     rdiaghg      :      0.03s CPU      0.04s WALL (     219 calls)
     h_psi        :     93.26s CPU     93.30s WALL (     221 calls)
     s_psi        :      0.74s CPU      0.74s WALL (     221 calls)
     g_psi        :      0.28s CPU      0.28s WALL (     197 calls)

     Called by h_psi:
     h_psi:calbec :      0.85s CPU      0.86s WALL (     221 calls)
     vloc_psi     :     91.20s CPU     91.23s WALL (     221 calls)
     add_vuspsi   :      0.84s CPU      0.84s WALL (     221 calls)

     General routines
     calbec       :      1.00s CPU      1.00s WALL (     251 calls)
     fft          :    333.35s CPU    333.42s WALL (    3564 calls)
     ffts         :     38.18s CPU     38.19s WALL (     414 calls)
     fftw         :     86.47s CPU     86.49s WALL (     930 calls)
 
     Parallel routines
 
     PWSCF        :  25m20.33s CPU  27m 1.57s WALL

 
   This run was terminated on:  16:40:24  20Dec2022            

=------------------------------------------------------------------------------=
   JOB DONE.
=------------------------------------------------------------------------------=
