
     Program PWSCF v.6.8 starts on 20Dec2022 at 16:14:36 

     This program is part of the open-source Quantum ESPRESSO suite
     for quantum simulation of materials; please cite
         "P. Giannozzi et al., J. Phys.:Condens. Matter 21 395502 (2009);
         "P. Giannozzi et al., J. Phys.:Condens. Matter 29 465901 (2017);
         "P. Giannozzi et al., J. Chem. Phys. 152 154105 (2020);
          URL http://www.quantum-espresso.org", 
     in publications or presentations arising from this work. More details at
     http://www.quantum-espresso.org/quote

     Parallel version (MPI), running on     1 processors

     MPI processes distributed on     1 nodes
     357949 MiB available memory on the printing compute node when the environment starts
 
     Reading input from ch2-gas-ensemble.in
Warning: card &CELL ignored
Warning: card / ignored

     Current dimensions of program PWSCF are:
     Max number of different atomic species (ntypx) = 10
     Max number of k-points (npk) =  40000
     Max angular momentum in pseudopotentials (lmaxx) =  4
     file C.pbe-n-kjpaw_psl.1.0.0.UPF: wavefunction(s)  2S 2P renormalized
     file H.pbe-kjpaw_psl.1.0.0.UPF: wavefunction(s)  1S renormalized

     **************************************************************************
     Initializing libbeef V0.1.2 with the BEEF-vdW functional.
     Citation: Wellendorff et al., PRB 85, 235149 (2012).
     **************************************************************************


     IMPORTANT: XC functional enforced from input :
     Exchange-correlation= BEEF-VDW
                           (   1   4  43  14   2   0   0)
     Any further DFT definition will be discarded
     Please, verify this is what you really want


     gamma-point specific algorithms are used

     Subspace diagonalization in iterative solution of the eigenvalue problem:
     a serial algorithm will be used

 
     G-vector sticks info
     --------------------
     sticks:   dense  smooth     PW     G-vecs:    dense   smooth      PW
     Sum       30833   30833   7711              3831715  3831715  478851
 
     Using Slab Decomposition
 


     bravais-lattice index     =            0
     lattice parameter (alat)  =      39.7657  a.u.
     unit-cell volume          =   61029.4103 (a.u.)^3
     number of atoms/cell      =            3
     number of atomic types    =            2
     number of electrons       =         6.00
     number of Kohn-Sham states=            7
     kinetic-energy cutoff     =      60.0000  Ry
     charge density cutoff     =     240.0000  Ry
     scf convergence threshold =      1.0E-06
     mixing beta               =       0.7000
     number of iterations used =            8  local-TF  mixing
     Exchange-correlation= BEEF-VDW
                           (   1   4  43  14   2   0   0)

     celldm(1)=  39.765704  celldm(2)=   0.000000  celldm(3)=   0.000000
     celldm(4)=   0.000000  celldm(5)=   0.000000  celldm(6)=   0.000000

     crystal axes: (cart. coord. in units of alat)
               a(1) = (   1.000000   0.000000   0.000000 )  
               a(2) = (   0.000000   1.021158   0.000000 )  
               a(3) = (   0.000000   0.000000   0.950430 )  

     reciprocal axes: (cart. coord. in units 2 pi/alat)
               b(1) = (  1.000000  0.000000  0.000000 )  
               b(2) = (  0.000000  0.979280  0.000000 )  
               b(3) = (  0.000000  0.000000  1.052155 )  


     PseudoPot. # 1 for C  read from file:
     /users/bkreitz1/quantum-espresso/potentials/C.pbe-n-kjpaw_psl.1.0.0.UPF
     MD5 check sum: a169b0ebad56f5ec0d79c4633f80bf22
     Pseudo is Projector augmented-wave + core cor, Zval =  4.0
     Generated using 'atomic' code by A. Dal Corso  v.6.7MaX
     Shape of augmentation charge: PSQ
     Using radial grid of 1073 points,  4 beta functions with: 
                l(1) =   0
                l(2) =   0
                l(3) =   1
                l(4) =   1
     Q(r) pseudized with 0 coefficients 


     PseudoPot. # 2 for H  read from file:
     /users/bkreitz1/quantum-espresso/potentials/H.pbe-kjpaw_psl.1.0.0.UPF
     MD5 check sum: ae98473e6dc62675f0d0baffdab24f65
     Pseudo is Projector augmented-wave, Zval =  1.0
     Generated using 'atomic' code by A. Dal Corso  v.6.7MaX
     Shape of augmentation charge: PSQ
     Using radial grid of  929 points,  2 beta functions with: 
                l(1) =   0
                l(2) =   0
     Q(r) pseudized with 0 coefficients 


     atomic species   valence    mass     pseudopotential
        C              4.00    12.01100     C ( 1.00)
        H              1.00     1.00800     H ( 1.00)

     No symmetry found



   Cartesian axes

     site n.     atom                  positions (alat units)
         1           C   tau(   1) = (   0.5247236   0.4937493   0.4752149  )
         2           H   tau(   2) = (   0.4752281   0.4752250   0.4752152  )
         3           H   tau(   3) = (   0.5160045   0.5459650   0.4752151  )

     number of k points=     1  Gaussian smearing, width (Ry)=  0.0050
                       cart. coord. in units 2pi/alat
        k(    1) = (   0.0000000   0.0000000   0.0000000), wk =   2.0000000

     Dense  grid:  1915858 G-vectors     FFT dimensions: ( 200, 216, 192)

     Estimated max dynamical RAM per process >       2.82 GB

     Initial potential from superposition of free atoms

     starting charge    5.99994, renormalised to    6.00000

     negative rho (up, down):  5.058E-03 0.000E+00


     %%%%%%%%%%%%%%%%%%%%%%%%%%%%%%%%%%%%%%%%%%%%%%%%%%%%%%%%%%%%%%%%%%%%%%%%
     %                                                                      %
     % You are using vdW-DF, which was implemented by the Thonhauser group. %
     % Please cite the following two papers that made this development      %
     % possible and the two reviews that describe the various versions:     %
     %                                                                      %
     %   T. Thonhauser et al., PRL 115, 136402 (2015).                      %
     %   T. Thonhauser et al., PRB 76, 125112 (2007).                       %
     %   K. Berland et al., Rep. Prog. Phys. 78, 066501 (2015).             %
     %   D.C. Langreth et al., J. Phys.: Condens. Matter 21, 084203 (2009). %
     %                                                                      %
     %                                                                      %
     % If you are calculating the stress with vdW-DF, please also cite:     %
     %                                                                      %
     %   R. Sabatini et al., J. Phys.: Condens. Matter 24, 424209 (2012).   %
     %                                                                      %
     %%%%%%%%%%%%%%%%%%%%%%%%%%%%%%%%%%%%%%%%%%%%%%%%%%%%%%%%%%%%%%%%%%%%%%%%


     Starting wfcs are    6 randomized atomic wfcs +    1 random wfcs
     Checking if some PAW data can be deallocated... 

     total cpu time spent up to now is       66.0 secs

     Self-consistent Calculation

     iteration #  1     ecut=    60.00 Ry     beta= 0.70
     Davidson diagonalization with overlap
     ethr =  1.00E-02,  avg # of iterations =  8.0

     negative rho (up, down):  4.101E-03 0.000E+00

     total cpu time spent up to now is       99.1 secs

     total energy              =     -21.11635588 Ry
     estimated scf accuracy    <       0.28785483 Ry

     iteration #  2     ecut=    60.00 Ry     beta= 0.70
     Davidson diagonalization with overlap
     ethr =  4.80E-03,  avg # of iterations =  1.0

     negative rho (up, down):  7.119E-03 0.000E+00

     total cpu time spent up to now is      130.8 secs

     total energy              =     -21.09197344 Ry
     estimated scf accuracy    <       0.06609698 Ry

     iteration #  3     ecut=    60.00 Ry     beta= 0.70
     Davidson diagonalization with overlap
     ethr =  1.10E-03,  avg # of iterations =  5.0

     negative rho (up, down):  1.469E-02 0.000E+00

     total cpu time spent up to now is      163.4 secs

     total energy              =     -21.09849713 Ry
     estimated scf accuracy    <       0.00578104 Ry

     iteration #  4     ecut=    60.00 Ry     beta= 0.70
     Davidson diagonalization with overlap
     ethr =  9.64E-05,  avg # of iterations = 13.0

     negative rho (up, down):  1.825E-02 0.000E+00

     total cpu time spent up to now is      199.3 secs

     total energy              =     -21.09854064 Ry
     estimated scf accuracy    <       0.00256534 Ry

     iteration #  5     ecut=    60.00 Ry     beta= 0.70
     Davidson diagonalization with overlap
     ethr =  4.28E-05,  avg # of iterations =  6.0

     negative rho (up, down):  3.962E-02 0.000E+00

     total cpu time spent up to now is      232.8 secs

     total energy              =     -21.09853413 Ry
     estimated scf accuracy    <       0.00143261 Ry

     iteration #  6     ecut=    60.00 Ry     beta= 0.70
     Davidson diagonalization with overlap
     ethr =  2.39E-05,  avg # of iterations = 15.0

     negative rho (up, down):  4.172E-02 0.000E+00

     total cpu time spent up to now is      269.1 secs

     total energy              =     -21.09896323 Ry
     estimated scf accuracy    <       0.00080904 Ry

     iteration #  7     ecut=    60.00 Ry     beta= 0.70
     Davidson diagonalization with overlap
     ethr =  1.35E-05,  avg # of iterations =  2.0

     negative rho (up, down):  2.379E-02 0.000E+00

     total cpu time spent up to now is      300.7 secs

     total energy              =     -21.09842406 Ry
     estimated scf accuracy    <       0.00038489 Ry

     iteration #  8     ecut=    60.00 Ry     beta= 0.70
     Davidson diagonalization with overlap
     ethr =  6.41E-06,  avg # of iterations = 13.0

     negative rho (up, down):  2.722E-02 0.000E+00

     total cpu time spent up to now is      336.1 secs

     total energy              =     -21.09862240 Ry
     estimated scf accuracy    <       0.00057886 Ry

     iteration #  9     ecut=    60.00 Ry     beta= 0.70
     Davidson diagonalization with overlap
     ethr =  6.41E-06,  avg # of iterations =  2.0

     negative rho (up, down):  1.863E-02 0.000E+00

     total cpu time spent up to now is      367.5 secs

     total energy              =     -21.09845162 Ry
     estimated scf accuracy    <       0.00024047 Ry

     iteration # 10     ecut=    60.00 Ry     beta= 0.70
     Davidson diagonalization with overlap
     ethr =  4.01E-06,  avg # of iterations =  3.0

     negative rho (up, down):  1.614E-02 0.000E+00

     total cpu time spent up to now is      399.8 secs

     total energy              =     -21.09852967 Ry
     estimated scf accuracy    <       0.00002705 Ry

     iteration # 11     ecut=    60.00 Ry     beta= 0.70
     Davidson diagonalization with overlap
     ethr =  4.51E-07,  avg # of iterations =  7.0

     negative rho (up, down):  1.036E-02 0.000E+00

     total cpu time spent up to now is      432.2 secs

     total energy              =     -21.09854992 Ry
     estimated scf accuracy    <       0.00001316 Ry

     iteration # 12     ecut=    60.00 Ry     beta= 0.70
     Davidson diagonalization with overlap
     ethr =  2.19E-07,  avg # of iterations =  2.0

     negative rho (up, down):  8.998E-03 0.000E+00

     total cpu time spent up to now is      464.0 secs

     total energy              =     -21.09855583 Ry
     estimated scf accuracy    <       0.00000993 Ry

     iteration # 13     ecut=    60.00 Ry     beta= 0.70
     Davidson diagonalization with overlap
     ethr =  1.66E-07,  avg # of iterations =  6.0

     negative rho (up, down):  7.995E-03 0.000E+00

     total cpu time spent up to now is      496.2 secs

     total energy              =     -21.09856079 Ry
     estimated scf accuracy    <       0.00000284 Ry

     iteration # 14     ecut=    60.00 Ry     beta= 0.70
     Davidson diagonalization with overlap
     ethr =  4.73E-08,  avg # of iterations =  1.0

     negative rho (up, down):  7.687E-03 0.000E+00

     total cpu time spent up to now is      520.0 secs

     End of self-consistent calculation

          k = 0.0000 0.0000 0.0000 (239426 PWs)   bands (ev):

   -17.0203 -10.2942  -6.3023  -5.0730  -0.9276  -0.2970  -0.1518

     the Fermi energy is    -5.7377 ev

!    total energy              =     -21.09856020 Ry

     total all-electron energy =       -78.862649 Ry
     estimated scf accuracy    <       0.00000072 Ry
     smearing contrib. (-TS)   =      -0.00000000 Ry
     internal energy E=F+TS    =     -21.09856020 Ry

     The total energy is F=E-TS. E is the sum of the following terms:
     one-electron contribution =     -29.75779914 Ry
     hartree contribution      =      15.63417850 Ry
     xc contribution           =      -6.04098596 Ry
     ewald contribution        =       5.63496854 Ry
     one-center paw contrib.   =      -6.56892214 Ry

     convergence has been achieved in  14 iterations

     negative rho (up, down):  7.687E-03 0.000E+00

     Forces acting on atoms (cartesian axes, Ry/au):

     atom    1 type  1   force =     0.00007298    0.00126128    0.00000048
     atom    2 type  2   force =    -0.00079310   -0.00052635   -0.00000070
     atom    3 type  2   force =     0.00072012   -0.00073493    0.00000022

     Total force =     0.001887     Total SCF correction =     0.000564
     SCF correction compared to forces is large: reduce conv_thr to get better values

     negative rho (up, down):  7.687E-03 0.000E+00

     negative rho (up, down):  7.687E-03 0.000E+00

     negative rho (up, down):  7.687E-03 0.000E+00

     negative rho (up, down):  7.687E-03 0.000E+00

     negative rho (up, down):  7.687E-03 0.000E+00

     negative rho (up, down):  7.687E-03 0.000E+00

     negative rho (up, down):  7.687E-03 0.000E+00

     negative rho (up, down):  7.687E-03 0.000E+00

     negative rho (up, down):  7.687E-03 0.000E+00

     negative rho (up, down):  7.687E-03 0.000E+00

     negative rho (up, down):  7.687E-03 0.000E+00

     negative rho (up, down):  7.687E-03 0.000E+00

     negative rho (up, down):  7.687E-03 0.000E+00

     negative rho (up, down):  7.687E-03 0.000E+00

     negative rho (up, down):  7.687E-03 0.000E+00

     negative rho (up, down):  7.687E-03 0.000E+00

     negative rho (up, down):  7.687E-03 0.000E+00

     negative rho (up, down):  7.687E-03 0.000E+00

     negative rho (up, down):  7.687E-03 0.000E+00

     negative rho (up, down):  7.687E-03 0.000E+00

     negative rho (up, down):  7.687E-03 0.000E+00

     negative rho (up, down):  7.687E-03 0.000E+00

     negative rho (up, down):  7.687E-03 0.000E+00

     negative rho (up, down):  7.687E-03 0.000E+00

     negative rho (up, down):  7.687E-03 0.000E+00

     negative rho (up, down):  7.687E-03 0.000E+00

     negative rho (up, down):  7.687E-03 0.000E+00

     negative rho (up, down):  7.687E-03 0.000E+00

     negative rho (up, down):  7.687E-03 0.000E+00

     negative rho (up, down):  7.687E-03 0.000E+00

     negative rho (up, down):  7.687E-03 0.000E+00

     negative rho (up, down):  7.687E-03 0.000E+00

     negative rho (up, down):  7.687E-03 0.000E+00

     negative rho (up, down):  7.687E-03 0.000E+00
 BEEFens 2000 ensemble energies
             -0.481157904585850E+00
             -0.665635520037611E-02
             -0.841006883195380E-01
              0.315329198521162E+00
             -0.156436154421770E+00
             -0.970899015475553E-01
             -0.370800852643697E+00
             -0.722421159215494E+00
             -0.220724230795976E+00
             -0.239924099439631E+00
             -0.251160680530862E+00
              0.585371748654256E-01
              0.217522197843392E-01
             -0.571260487205358E-01
              0.275763734976817E-01
              0.337902060110237E+00
             -0.134278375738968E+00
             -0.317796204064362E-01
              0.185778751779227E+00
             -0.798700335269701E+00
              0.401704429321733E+00
             -0.118718496389221E+00
             -0.472624509181709E-01
             -0.600927732063747E-01
              0.494761126264547E-01
             -0.280324356621194E-01
              0.641636471718605E+00
             -0.181709623449304E+00
             -0.475147110391365E-01
             -0.410377839861075E+00
              0.460187531574165E+00
              0.677219798902429E-02
             -0.300888269543151E+00
              0.105952219962236E+00
             -0.214082091819117E-01
              0.235196104771872E+00
              0.244413627743254E-01
             -0.217233057828909E-01
              0.303069390531671E+00
             -0.704052519007670E+00
              0.400152039629101E+00
              0.839516973533658E-01
             -0.121364613277134E+00
             -0.192868670479939E+00
              0.910431926700024E-01
             -0.140515429521620E+00
              0.381458543673242E+00
              0.251733609119073E+00
             -0.111377958788601E+00
             -0.237302649263579E+00
             -0.218133531736706E+00
             -0.285287370987346E+00
              0.200355128457672E+00
             -0.375486378332384E+00
              0.126385258700738E+00
              0.445404015628332E+00
              0.565716606038906E+00
              0.229823549489563E+00
              0.119827109056878E+00
              0.251033752307972E+00
              0.674326815085805E+00
              0.100654630885208E+00
             -0.394685603052058E+00
             -0.588251951944674E-01
             -0.229012620222576E+00
              0.438411902618016E+00
             -0.506914510403517E+00
             -0.417209857643759E+00
             -0.270428658703106E+00
             -0.184959375619604E+00
             -0.253699528519487E+00
              0.209127484578342E+00
              0.110275687538353E+00
              0.127798475779480E+00
             -0.285437652778681E+00
             -0.254104539068934E+00
             -0.434066052700772E+00
              0.202603340184921E+00
             -0.256822773556123E+00
              0.255539784343956E+00
             -0.741804462179764E-01
             -0.194632050623873E+00
             -0.335774710814260E+00
             -0.947406615999187E-01
             -0.129535411955994E+00
             -0.976002488776752E-01
              0.284382064103245E+00
              0.591212635638732E+00
             -0.344641361757746E+00
             -0.561681758410697E+00
             -0.127697028514417E+00
              0.774318402310169E+00
             -0.405268467824336E+00
              0.211989629504186E+00
             -0.812269743372207E-01
             -0.418058120462202E+00
              0.209621125385373E+00
              0.198164765461312E+00
             -0.950755750425543E-01
              0.185549730983305E+00
             -0.170361147204161E+00
             -0.472178133248202E+00
              0.761242671688029E+00
              0.316290668667165E+00
              0.122764392587888E+00
              0.795969151019895E-01
              0.170094548202090E+00
              0.581300669085335E+00
             -0.205389573664207E+00
              0.128359098054388E-01
             -0.989736649019554E+00
              0.123974742505947E+00
             -0.464917213757750E+00
              0.865241064692905E-01
              0.158697093192446E+00
             -0.274075241147902E+00
             -0.349295988219805E+00
              0.330118559774917E-02
             -0.230193467083962E+00
              0.341656898197306E+00
             -0.308770898012508E+00
             -0.868664634859782E-01
             -0.285716429985982E+00
             -0.153781642369109E-01
              0.552326817643247E-01
              0.184161367951895E+00
             -0.395189030211895E-02
             -0.478809214895555E-01
              0.504618886028507E+00
              0.667547738104841E+00
              0.360740013052614E+00
              0.425053590826813E+00
             -0.106706575075688E+00
              0.309062245664506E-01
              0.364186558692436E+00
              0.793616091712994E-01
             -0.559111212532980E+00
             -0.340814588302973E+00
             -0.355599795750325E+00
             -0.215477693768997E+00
              0.176749156899587E+00
             -0.887002133425006E+00
             -0.717663858284892E-01
              0.341335664924350E+00
             -0.303398275834057E+00
             -0.189447186882048E+00
              0.435440927503744E+00
              0.375343438420130E+00
             -0.195854155009570E+00
              0.291582939287830E+00
             -0.181885722620179E+00
              0.279011150311380E+00
              0.540546724127251E-01
              0.575676461580887E-01
             -0.585208728829882E+00
             -0.347416623473102E+00
             -0.699800044137140E-01
             -0.500955433483855E-01
             -0.319542576151933E+00
              0.819036933237281E+00
             -0.504914442337956E-01
             -0.177880975070547E+00
              0.270510451741050E+00
             -0.304455913251474E+00
             -0.283643120177441E+00
              0.243194447582195E+00
              0.864001871824212E-01
              0.772149922694108E-01
              0.131532791267620E+00
             -0.714575627150404E-01
              0.465625520797237E-01
              0.420364827770750E+00
             -0.176999693583137E+00
              0.170557108792239E+00
              0.637752719642600E+00
              0.219481299200400E+00
             -0.169877240479543E-01
             -0.150412190201996E+00
              0.112431609389051E+01
             -0.201623171961688E+00
              0.300111196708725E+00
              0.248336526239231E+00
              0.173492117045241E+00
              0.673957718311773E+00
              0.309030460615155E+00
             -0.336023792985855E-01
              0.182946397795566E+00
              0.382339422294430E+00
              0.264021795455219E+00
             -0.460127639659961E+00
              0.693680612006887E+00
             -0.637078193130689E+00
             -0.479844221107945E-01
              0.393069157561751E+00
              0.155359315133496E+00
              0.314585479818659E-01
              0.175645668449232E+00
              0.896601235963761E-01
              0.220137098667920E+00
             -0.440907851508173E+00
              0.233742169362512E-01
             -0.157016598569609E+00
             -0.185339098671825E-01
             -0.260952994532566E-01
             -0.107786458574025E+00
             -0.527865334234208E-01
              0.606896719369712E+00
             -0.276565144044462E-01
             -0.206602938613104E+00
             -0.695405277338823E-02
              0.104501379506688E+00
             -0.472720223390490E+00
             -0.440121989756966E+00
             -0.234664016776300E+00
             -0.447469285879639E+00
             -0.131289100107768E+00
             -0.279461443771987E+00
              0.128052474095878E+00
              0.268727594999871E-01
             -0.101765077736768E+00
             -0.532500771943712E-01
              0.308886768084240E-01
             -0.753481458122847E-01
              0.470294793904710E+00
             -0.655473007132197E+00
             -0.875583050019482E-01
             -0.896203885019022E-01
              0.113574186254386E+00
              0.166527572945226E+00
             -0.377350577473779E+00
             -0.591553241479919E-01
              0.328387067611767E+00
             -0.131016488563666E+00
              0.871889166950255E-01
              0.237667730958010E+00
              0.586495938386999E-02
              0.823079728336207E+00
             -0.365092054370457E-01
             -0.251547559609524E+00
             -0.212072144087978E-01
             -0.220834104151825E+00
              0.387914675249115E+00
             -0.394843857107413E+00
              0.119525784323507E+00
              0.308965247889346E+00
             -0.949633263086014E-01
              0.841652172297591E+00
              0.915399234227166E+00
             -0.530000168357680E+00
              0.412289996775955E+00
              0.190857722656202E+00
             -0.417128968002372E+00
              0.121043005020623E+00
              0.337024975476326E+00
              0.363882432929409E+00
              0.410888198924959E-01
              0.157379993647372E+00
              0.562359617962568E+00
             -0.164691597475463E+00
              0.520687380245546E-01
              0.463628986264820E+00
             -0.258726699484416E+00
             -0.207097725559273E+00
              0.453884912765119E+00
              0.230514611810777E+00
              0.544541823178212E+00
              0.283869684397730E+00
              0.121113553580194E+00
              0.168261021327738E+00
              0.324402593893432E+00
             -0.406650676107897E+00
              0.667726067969863E-01
              0.242218121134420E+00
              0.655473750455449E-01
              0.187512704787007E+00
             -0.469886274358693E+00
              0.218787548410120E+00
             -0.303401873365221E+00
             -0.222767443307930E+00
              0.154019643183874E+00
             -0.461408231586052E-01
              0.442386196951254E+00
             -0.642234376962294E-01
              0.208377751187263E+00
              0.200013946169348E+00
              0.540642108473884E+00
              0.372862662657349E+00
              0.391867262637468E+00
              0.650793857579313E-02
             -0.943588587276543E-01
             -0.214736568209365E+00
              0.613442146903545E+00
              0.603224567817006E+00
              0.285516256024569E+00
             -0.225187754512645E+00
              0.350457012468024E+00
              0.344381159929963E-01
              0.110500497834705E+00
              0.528620427962945E+00
             -0.372080453261122E-01
             -0.771983356200314E-01
             -0.132041900286090E+00
             -0.477568486210014E+00
              0.694474359073472E+00
              0.395411416540595E+00
             -0.486032024296264E+00
             -0.171448996217235E+00
              0.174521168868241E+00
             -0.809523708714682E-01
              0.484054104628113E+00
              0.107799487390958E+00
              0.586009338291096E+00
              0.231838384463176E+00
             -0.140783532871746E+00
              0.981296352873147E-01
             -0.573085070684303E-01
             -0.157054657090073E+00
              0.124807657310696E+00
              0.997288228539954E-01
              0.659219258917476E+00
              0.542275352173335E+00
              0.427779914963104E+00
              0.475054271754221E+00
              0.590259895838541E-01
             -0.184594357972302E+00
              0.862943704289629E-01
             -0.235000990309369E+00
             -0.431771466161679E+00
             -0.397862890005181E+00
             -0.249626133088836E+00
             -0.791606560304391E+00
             -0.290869063877002E+00
             -0.637172831385527E+00
              0.149604325139494E+00
             -0.328373104463879E+00
              0.401675797204962E+00
             -0.730293035895828E+00
             -0.200451921196503E+00
              0.237798311451960E+00
              0.151908935343823E+00
             -0.668871388715961E+00
              0.353850944875515E+00
             -0.212726646895533E+00
              0.414145329866483E+00
             -0.196119907516737E+00
             -0.565328612754167E+00
              0.144861717700312E+00
             -0.482352899135423E+00
              0.562795173487274E-02
             -0.243576142073562E-01
              0.296427005810166E+00
              0.911646830822845E+00
             -0.301469986028327E+00
             -0.265789886891831E+00
             -0.719509362440660E-01
             -0.481397157464978E-01
             -0.569023872471000E+00
             -0.411306500296170E+00
              0.354800836924419E+00
             -0.104552659004270E+00
              0.173145517225161E+00
             -0.357867989123402E+00
             -0.118645489730346E+00
             -0.303627777053036E+00
              0.329728695114584E+00
              0.716987011079082E-01
             -0.181951251580560E+00
             -0.146862948538304E+00
              0.115771602013175E+00
             -0.626278637079856E-01
              0.277588849203084E+00
             -0.199723977071237E+00
              0.107970600348567E+00
              0.251460638300764E+00
              0.752498253504421E-01
             -0.198113941648635E+00
              0.111967487545094E+01
              0.456581735524347E+00
              0.819051340729068E-01
              0.255270493967013E-01
             -0.444462348095503E+00
              0.246138713530947E+00
             -0.571149655039950E+00
             -0.264270586152054E+00
             -0.451502289028681E+00
             -0.128420147304147E+00
              0.431691631237390E+00
             -0.429983176890914E+00
              0.219396100376974E+00
             -0.371346051768775E-01
              0.699073846193277E-03
             -0.208360714047543E+00
             -0.287300517338130E+00
             -0.739071998091299E-01
             -0.209363317243941E+00
             -0.148842264096875E+00
             -0.280717370117156E+00
             -0.220193798462226E-01
             -0.221887286772386E+00
             -0.343198919230350E+00
              0.159237560568730E+00
             -0.654212007833719E-01
              0.189535978345207E+00
              0.610161890913827E-01
             -0.554280748351286E+00
             -0.357159182385400E+00
             -0.393555166692434E+00
              0.218686274687076E+00
             -0.617210574216933E-01
             -0.442476375245529E+00
              0.413494930522084E+00
             -0.310938019719502E+00
              0.433138052127716E+00
             -0.232547330991276E+00
             -0.364045876289305E+00
              0.163420693551637E+00
             -0.533389411428193E+00
             -0.215578702344418E+00
              0.421956845506487E+00
              0.157012075831743E+00
             -0.334583863816371E+00
              0.432923146926154E+00
             -0.118111834073186E+00
             -0.277412740910022E+00
             -0.220755841032439E+00
             -0.390486201216944E+00
              0.199030397089977E+00
             -0.627368206903337E+00
             -0.541529860182212E+00
             -0.495672432133234E-01
             -0.202470670681755E+00
             -0.459742674647623E+00
              0.561814540972023E+00
              0.101418999976966E+01
             -0.123047699130586E+00
             -0.243896115984055E-01
             -0.439575861648752E+00
              0.475777924496736E+00
              0.170065873711993E+00
             -0.167382431425573E+00
             -0.251895166746791E+00
              0.924034458219912E-01
             -0.425074272660732E+00
             -0.625379864873450E-01
             -0.616421832137586E+00
              0.243732897597859E+00
              0.766374423106424E-01
             -0.511181545913355E-01
             -0.101730532788381E+00
             -0.332818450521398E+00
             -0.111883002529862E+00
              0.102522704207821E+01
             -0.987151210871251E-01
             -0.368093402437799E+00
             -0.508084008443607E+00
              0.110531094427191E+00
             -0.288072188817401E+00
              0.801095072283907E-01
              0.254342518113176E+00
              0.333944046489336E-01
              0.284542937934728E+00
              0.154022971251485E+00
              0.420265821436163E+00
              0.157239455836363E+00
             -0.270191563152376E+00
              0.424548868901577E+00
              0.247009182100164E+00
              0.944686267252008E-01
              0.257477641220407E+00
             -0.244661963232370E+00
              0.516956557431126E+00
              0.209971258609207E+00
             -0.266207950258563E+00
             -0.490058923593171E-01
             -0.111373823411690E+00
              0.887912503619745E-01
             -0.175244074728847E+00
             -0.114733442541444E+00
             -0.106015577660848E+00
              0.577160366879440E+00
              0.444476842951742E+00
             -0.456578859796120E+00
             -0.759208858361303E-01
             -0.358198342691228E+00
             -0.834202327330100E-01
             -0.156936806460480E+00
              0.928414439200127E-01
             -0.256331050352072E-01
             -0.222315982485626E+00
              0.141748492438087E+00
             -0.781884066990467E-01
             -0.489553270554278E-01
              0.627902889606048E+00
              0.949962545081135E-01
             -0.611970532324990E+00
             -0.266548132695714E+00
              0.702889879763414E+00
              0.163467683910375E+00
             -0.597977211852019E-01
              0.807832724914067E+00
             -0.110002339718919E+00
             -0.426366409257295E-01
             -0.109862210191983E+00
              0.130034645902408E+00
              0.256433754974454E+00
              0.183137724789654E-01
              0.209815605006929E+00
             -0.608614753547259E-01
             -0.314465370436767E+00
             -0.278522703958309E+00
             -0.358389278296130E+00
              0.290511376718836E+00
              0.111739695336338E+00
              0.278033577044387E+00
              0.126565899759775E+00
              0.665749870039109E+00
              0.149780166517607E+00
             -0.544114926879960E+00
             -0.242921167058952E+00
              0.774067767713826E-03
             -0.206592377026792E+00
              0.468710532918781E+00
             -0.122546373750331E+00
              0.118280335285422E+00
              0.412787824118598E+00
             -0.603058517030613E+00
              0.107804663398203E+01
              0.147006173927025E+00
              0.168258146479319E+00
              0.284145342789079E+00
              0.174267181538514E-01
             -0.171654270109449E-01
              0.231261981642922E+00
             -0.264315383451772E+00
              0.645043301831459E+00
              0.567441587569731E+00
             -0.279118572862916E+00
              0.139860360066825E+00
              0.531357222162689E+00
             -0.152285719176284E+00
              0.159558671762972E+00
              0.217500808263659E+00
              0.298332000947719E+00
             -0.532245763319477E+00
             -0.242403621181664E-01
             -0.170956664781885E+00
             -0.587298191453227E-01
             -0.682068077722943E-01
              0.762621313656267E-01
             -0.846165730074238E-01
             -0.227821163575356E+00
              0.145022663404853E+00
              0.312671911815894E-01
              0.388134948476046E+00
             -0.352657957003249E+00
              0.349466541697477E+00
              0.394855684664653E+00
             -0.449247224269507E-01
              0.510810538072977E+00
             -0.483621155075960E+00
             -0.747758530612232E+00
             -0.572827620344665E-01
             -0.522344504716861E-01
             -0.743226506207506E-03
              0.566255479061529E+00
              0.587059243072618E-02
              0.312375951288645E+00
              0.472102205939566E+00
              0.284283555273267E+00
             -0.363049760225449E-01
              0.425165357837451E+00
             -0.125690438029490E+00
             -0.300739025277264E+00
             -0.249993834103024E+00
              0.851113853216166E-01
              0.256305890187444E+00
             -0.122232676052909E-01
              0.236501533855139E+00
              0.195383212714446E-01
              0.381019173229452E+00
              0.108001846538800E+00
              0.501778457468918E-01
              0.169935252709963E-01
              0.206181619363624E+00
              0.294688353768734E+00
              0.935693538089326E-01
             -0.287838975837419E-01
             -0.397466334999295E+00
              0.215378810269098E+00
              0.152352581734255E+00
              0.236028076567149E+00
              0.215231415823148E+00
              0.258863123221062E+00
             -0.698636089065550E-01
              0.266874490846381E+00
             -0.222301333954308E+00
             -0.179013533699965E-01
             -0.382712778414060E+00
             -0.250630552393878E+00
              0.326558500622206E+00
             -0.641608801307183E+00
              0.166044580173581E+00
              0.101259472215887E+00
              0.639552574319677E+00
             -0.630365596592555E-01
              0.250160670296129E+00
             -0.776984622244794E-01
             -0.358708279941800E+00
             -0.463552078749116E+00
             -0.130399842553295E+00
             -0.679426813515428E+00
              0.424205847647805E-01
             -0.148331131325008E+00
              0.239353822424653E+00
              0.188728336222236E+00
             -0.222054702123766E+00
             -0.238936696615142E+00
              0.323235049681385E+00
             -0.418089059194719E+00
             -0.104927499299321E+00
             -0.106779358808897E+00
              0.212248099744133E+00
              0.598784017565199E-01
              0.181987023883343E-01
             -0.996118935246144E-01
              0.381478655417146E+00
             -0.475338568993382E+00
              0.497098463202188E-01
              0.446129212399542E+00
             -0.270709025327986E+00
              0.294782414463426E-01
              0.267438391824437E-01
             -0.472793436122376E+00
             -0.259176447649325E+00
              0.179881133133108E-02
              0.241751971779768E+00
              0.255829148325541E+00
              0.414325634165609E-01
             -0.925469643893857E-01
              0.119804020109135E+00
             -0.289902386431547E+00
             -0.525460656078347E-01
             -0.395026039034182E+00
             -0.183999424233072E+00
              0.367219149305629E+00
             -0.222297933415111E+00
              0.527505725558681E+00
             -0.185094308893346E+00
              0.233742575365692E+00
              0.192660245391414E+00
             -0.431799862034744E+00
             -0.177414198628739E+00
              0.643655535116456E-01
             -0.309908489142424E+00
             -0.322782651776705E+00
             -0.650763262551016E+00
             -0.409653328955011E+00
             -0.353675530029318E+00
             -0.334707326625114E+00
              0.248594808811209E-02
              0.204013835417464E+00
              0.107674064945733E+00
              0.220276682547924E+00
             -0.435703925240913E+00
              0.962357294996870E-01
              0.232826979836607E+00
             -0.509979442155228E+00
             -0.394768158720079E+00
             -0.285467668910180E+00
             -0.268279811879492E+00
              0.933847143827222E-01
             -0.296725073637631E-01
             -0.296333185377051E+00
              0.185392887579927E+00
             -0.175334595257746E+00
              0.387066105952495E+00
             -0.635157935967245E+00
              0.469389813225792E+00
             -0.100322192634908E+00
             -0.351094877840627E+00
             -0.201913187050704E+00
             -0.269830635248284E-01
              0.367241126541998E+00
             -0.501076131223685E+00
             -0.869002267316588E-01
             -0.116710835129546E+00
              0.285318698570049E+00
              0.575290296755349E+00
             -0.746095935886664E+00
              0.665774979615861E+00
              0.260687234464987E+00
             -0.560832367469854E+00
             -0.219889920145118E+00
              0.591019927773849E+00
              0.408383340044265E+00
             -0.173140155557495E+00
             -0.595537689761052E-01
              0.158568036520445E+00
              0.589975799666572E+00
             -0.451997682002798E+00
              0.884040042834786E-01
             -0.549149855204621E-01
              0.182526357916711E+00
             -0.507049188423678E+00
             -0.502664569371197E-02
             -0.185179600619844E+00
              0.357457271282445E+00
              0.265333461505660E+00
             -0.658124652903918E+00
             -0.337728382510912E+00
             -0.146026225005697E+00
             -0.335143241501306E+00
             -0.873392075061397E-01
             -0.120598402055591E+00
              0.350489927634003E+00
              0.320531118393445E+00
             -0.607393207032536E-02
             -0.318793688639907E+00
             -0.636264614773428E+00
              0.387376480876265E+00
             -0.326424969612570E+00
             -0.286048862278579E+00
              0.598854242895493E-01
             -0.277489884719573E+00
             -0.287941738825046E+00
             -0.248037756317663E+00
             -0.405723617462665E+00
             -0.159115636379003E+00
             -0.365540268969582E+00
              0.399883818353423E+00
              0.423253266220095E+00
             -0.917152382624460E-01
             -0.140656781383216E+00
              0.260386042362315E-01
              0.313268825351742E+00
             -0.620010125861057E+00
             -0.181946260544359E+00
              0.364519672877663E+00
              0.532844928680270E+00
             -0.633824420318496E-01
              0.769343946864343E-01
              0.392313204692684E+00
              0.112109312243572E+00
              0.424690048342713E-01
             -0.272696989648326E+00
              0.871300836137148E-01
             -0.233326942623075E+00
             -0.513183639414763E-01
             -0.158745579898851E+00
             -0.955249221607883E-01
              0.182127040216786E+00
              0.588545768210870E+00
             -0.681967912270358E-01
              0.516258956649729E-02
             -0.680201473218691E+00
             -0.143640354965584E+00
             -0.255304801514084E+00
             -0.154544630193065E-01
             -0.354080716154113E+00
              0.685908317185197E+00
              0.646220204499364E+00
              0.144062137753453E+00
             -0.194913263334523E+00
              0.137132451738370E+00
              0.137931427191470E+00
             -0.334848411199542E+00
             -0.675325069432153E-01
              0.161207886879549E+00
              0.771406870116702E-01
              0.360084338058401E+00
              0.273651911221752E+00
             -0.155464150529873E+00
              0.143546341031671E+00
             -0.727105262674852E+00
             -0.152752028390788E-01
              0.668182595943343E+00
              0.148869499247993E+00
             -0.231347689406380E-01
              0.190374985625065E+00
             -0.156791234490898E+00
              0.623718042156408E+00
             -0.167688391665223E+00
              0.551029638655183E+00
              0.285528655045260E+00
             -0.344341065287270E+00
              0.249266083214320E+00
             -0.193666498413044E+00
             -0.497834490313492E+00
             -0.620490350855518E-01
             -0.393599304203398E+00
             -0.381992962220857E+00
              0.323403506746089E-03
              0.292151456777661E+00
             -0.116022421685771E+00
             -0.218897066729590E+00
              0.520923846350070E-01
             -0.462773226348289E+00
             -0.144012674550132E-01
             -0.642239506742872E+00
              0.382140333713682E+00
             -0.347781030789307E-01
             -0.356919701368886E+00
             -0.115693353807564E+00
              0.117439469796975E+00
             -0.290470299036714E+00
             -0.314743112030895E+00
              0.673777220222467E+00
             -0.214635437577699E+00
             -0.264693747806567E+00
              0.248442888330208E+00
             -0.185147467599700E+00
              0.420846291921374E+00
             -0.221349866790703E-01
             -0.172284932050837E-02
              0.814673190510401E+00
             -0.475019685055633E-01
             -0.288898944651241E+00
             -0.375812494073228E+00
             -0.374770853116782E+00
             -0.277575133660122E+00
              0.212520155587215E+00
              0.250342214330289E+00
              0.218401958857632E+00
              0.532208810135924E+00
              0.375201891540025E-01
              0.180750340641482E+00
             -0.415537308263408E+00
              0.879400191004809E-02
             -0.104124413629246E+00
             -0.204714491461763E+00
             -0.659408888192039E-01
              0.240503560076768E+00
              0.279459117318684E+00
             -0.287171996197458E-01
              0.983969650058860E-01
              0.199054230913514E+00
              0.243131815852034E+00
             -0.157672322630527E+00
             -0.624314957602401E-01
             -0.727308418513095E-03
             -0.197374610470865E+00
             -0.195062780098989E-01
             -0.325443331513079E+00
              0.579738622779275E+00
              0.442387004215394E+00
             -0.144164522403845E+00
              0.135078178318928E+00
             -0.488683765922732E-01
             -0.258971336692205E+00
              0.284164522827713E+00
             -0.656700483461750E-01
              0.259167401062433E+00
             -0.333280068001525E+00
              0.116386351227436E+00
             -0.495290623199733E-01
             -0.379910263739679E+00
             -0.163394249139175E+00
              0.159492530614229E+00
             -0.742760455954643E+00
              0.270013510777938E+00
              0.329830339243993E+00
             -0.799376894589147E-01
             -0.485088935436497E-01
             -0.189481266053801E-01
              0.198018789720332E+00
             -0.245961588797380E+00
              0.220345451435335E+00
              0.244483218277096E+00
             -0.637851102007851E+00
             -0.267327421349028E+00
              0.176959124551507E+00
             -0.969886199409420E-01
              0.381593440737054E+00
             -0.460969538882464E+00
             -0.857592179205575E-01
             -0.280525760356002E+00
             -0.971177459293515E+00
              0.581732818573787E+00
             -0.436895575599602E+00
             -0.504918744098690E+00
              0.422680320235574E-01
              0.950078872717633E+00
              0.570298605069411E-01
             -0.267919574213999E+00
             -0.107990663383659E-01
             -0.247345447260240E-01
             -0.621502889933288E+00
             -0.394807491074872E+00
              0.640526417519002E+00
             -0.107360061105058E+00
             -0.246944139203449E+00
              0.348597030936986E+00
             -0.240136026966518E+00
              0.235542334024400E+00
              0.340742433068867E+00
             -0.371021094491617E+00
             -0.219413573685155E+00
             -0.221881427612057E+00
             -0.139675214077967E+00
             -0.151294952653694E+00
             -0.160866204772081E+00
              0.142888999824896E+00
             -0.262297014180263E+00
              0.198680171384118E+00
              0.388356475329406E+00
             -0.216382718062898E-01
             -0.155773781586681E+00
              0.118852303948983E+00
              0.392105913247660E+00
              0.409900175624952E+00
              0.984806004882925E-01
             -0.980032398292763E-01
             -0.994472814383498E-01
             -0.399900571739298E+00
              0.306367128672951E+00
             -0.185167353915993E+00
              0.172602043791727E+00
             -0.888471887058611E-01
              0.177989468653671E+00
              0.127601380192031E+00
             -0.613449603435265E+00
             -0.182296069856091E+00
             -0.574423662019076E+00
             -0.310026376647667E+00
              0.294646415764335E-01
             -0.142717452145175E+00
              0.261136544342142E+00
             -0.201471893358133E+00
              0.243017833395533E-01
              0.482826676803749E-01
              0.502300614336739E+00
              0.256438966431623E+00
             -0.254571123558421E+00
             -0.299737264143363E-01
              0.122232382630576E+00
              0.262078154058875E+00
              0.159209193808962E-02
              0.429239011816553E+00
              0.206950997883165E+00
              0.665766281634548E+00
              0.270928552825306E-01
              0.445533811888452E+00
             -0.195073655504592E+00
             -0.283931706129222E+00
              0.915795182598744E-02
              0.889511442532624E-01
              0.155418504185778E+00
             -0.181098955418685E+00
             -0.747611699185288E-01
              0.168815818549028E+00
             -0.358600937649695E+00
             -0.446154161847015E+00
              0.584910405250554E+00
             -0.406402635407677E-01
             -0.260807371126288E+00
             -0.508239195994471E-01
             -0.106174479167154E+00
              0.346363122121485E+00
              0.268286995633320E+00
             -0.143128545606758E+00
             -0.679568984988910E-02
             -0.186533307921321E+00
             -0.271329547894422E+00
             -0.165556204218885E+00
             -0.715522170184477E+00
              0.219116302848179E-01
             -0.466436901879787E+00
             -0.435501360254847E+00
             -0.262146448912054E+00
              0.175664250192248E+00
             -0.277428257928511E+00
              0.186555501525569E+00
             -0.487285412735316E+00
              0.282250254618654E-02
             -0.311470590827357E+00
              0.494648210076483E-01
              0.561866406932836E-01
              0.275162822904008E+00
             -0.157078060829898E+00
             -0.145830823025483E+00
              0.241179160696569E+00
              0.438593886180111E+00
              0.236115135353621E+00
              0.884187586066645E-01
             -0.553965656119178E+00
             -0.127920848201063E+00
             -0.193185340753969E+00
             -0.454406163715134E+00
              0.315255976440202E+00
             -0.255324203913227E+00
             -0.553901029880053E-01
             -0.221082383146511E+00
             -0.720871830823488E+00
              0.421676700326751E+00
             -0.148399646257748E+00
              0.277217447335712E+00
             -0.547912726868553E+00
              0.481958157821393E+00
              0.403463858980730E-01
             -0.177210354071093E+00
              0.838735344486383E-01
             -0.136364112145285E+00
             -0.444657335987512E+00
              0.134836876901655E+00
              0.313989837659270E+00
             -0.168010343253990E-01
             -0.250238527358042E+00
             -0.122208173111841E+00
              0.164810424982213E+00
              0.283053433503928E+00
              0.449205549050033E+00
              0.157405193294299E+00
             -0.170780572533497E+00
              0.758075202426166E+00
              0.134758696163329E+00
              0.363122748469457E+00
             -0.113796320688965E+00
              0.219016864355993E+00
              0.187797370959845E+00
             -0.451915864768050E+00
             -0.166131349663351E+00
             -0.294478740860181E+00
             -0.323942335462865E+00
             -0.876781038777330E-01
             -0.499177942448359E-01
             -0.361015280132615E+00
             -0.807252578115464E+00
             -0.190105883957857E+00
              0.988118555829729E-01
              0.410185880576588E-01
              0.127920966633511E+00
              0.278212037621722E+00
              0.688069529929596E-01
              0.219431835157576E+00
             -0.328957540062245E+00
              0.311626909970414E+00
             -0.273296203575259E+00
             -0.472492288828811E+00
              0.155485712678503E+00
             -0.312393388557937E+00
             -0.291128024454940E+00
             -0.116576483213897E+01
             -0.474266305105544E-01
              0.623490019440092E+00
              0.276475605701191E+00
             -0.745549851418623E-01
             -0.825185629246268E-01
              0.340913410928080E+00
              0.462464586149615E+00
             -0.281215086284417E+00
             -0.952822714603472E-01
             -0.270261549585130E+00
             -0.237812163120831E+00
             -0.209828138553323E+00
              0.699105565877467E-01
              0.495700981497210E+00
             -0.483159904271521E+00
             -0.404392981731709E+00
              0.304135193064217E-01
             -0.121093631548986E+00
             -0.136543122497899E+00
             -0.639752305375963E+00
              0.475726672318814E+00
              0.134240461967393E+00
              0.639806329575598E-01
              0.380301661304656E+00
             -0.241106704195578E+00
              0.255533721811919E+00
              0.210297457408490E+00
              0.908438471807749E-02
             -0.712933289157501E-01
              0.499860253780051E-01
             -0.116952860603473E+00
              0.390840892981148E+00
             -0.282355928118563E+00
              0.342636011788543E+00
              0.750072373187090E-01
              0.139992923630733E+00
              0.133378809269170E+00
             -0.584005612710822E+00
              0.804339126515032E-01
             -0.493820059030518E+00
             -0.348812847307705E+00
             -0.347881064807080E+00
             -0.401310084024897E+00
              0.418221239265826E-03
              0.149173381661930E+00
              0.363407807375950E+00
              0.464601088787100E-01
              0.111135136457402E+00
             -0.499786814350467E+00
             -0.212279330896158E+00
              0.233998189837020E+00
             -0.454813371297047E-01
             -0.354622752236120E-01
             -0.737889321548426E-01
              0.255316203108231E+00
             -0.662842275484379E+00
              0.104239633614905E+00
              0.143055458283910E+00
              0.277647471104725E+00
              0.269190094304544E+00
             -0.410770150695183E+00
              0.130820280950681E+00
              0.607848534271821E-01
              0.638586370681842E-01
              0.513479481375660E-01
             -0.151309476990796E+00
             -0.341358578331388E+00
              0.134081121827163E+00
              0.412438974298285E+00
              0.985212136454106E-02
              0.108093513912662E+00
              0.806435584570431E-01
             -0.237954791529452E+00
             -0.250455916691473E+00
             -0.908721026775584E+00
             -0.281018621580291E+00
             -0.454799284022282E+00
             -0.492086473474163E-01
             -0.512369826583021E+00
              0.550521549497285E+00
             -0.255770329069213E+00
             -0.399519396605775E+00
             -0.113909646293590E+01
              0.491770946624855E+00
              0.112853242233023E+00
              0.954874670776317E-01
             -0.437804461400106E+00
              0.253142863411724E-01
             -0.120936655895643E+00
             -0.220059992769618E+00
              0.521126396664855E-01
              0.236694139262365E+00
              0.367778231140474E-01
             -0.162465118698706E+00
              0.427774864328532E-01
              0.133600503388320E-01
              0.493001641220068E-01
             -0.507039183536581E+00
              0.544316879641447E+00
             -0.299582749127427E+00
             -0.195903334814409E+00
             -0.409172662650979E+00
             -0.825881692063930E+00
              0.260924420310206E-01
             -0.425247270006488E+00
             -0.120878998520198E+00
              0.217087491229957E+00
             -0.201513408310715E+00
             -0.103851780612222E+00
             -0.100699681532979E+00
             -0.132304996232971E+00
              0.292272364788274E-01
              0.385353144622644E+00
             -0.367083049865486E+00
              0.795685902867717E+00
             -0.193322486226288E+00
              0.228045773859256E+00
             -0.159952240548397E+00
              0.821328434484768E-01
             -0.850383498556111E-01
              0.309671283080336E+00
              0.461464963567982E+00
              0.127926524921188E+00
              0.309939703263153E+00
             -0.191392169916253E+00
             -0.615996370893508E-01
             -0.181865874731918E+00
              0.455489268047983E+00
              0.403704644375277E+00
              0.287123742454905E+00
             -0.995167226865998E-01
             -0.177317916724404E+00
              0.169229877952295E+00
             -0.212816932318296E+00
             -0.109252566872265E+00
             -0.374745719509477E-01
             -0.284734382112472E+00
              0.350341639039534E+00
             -0.933754944926538E-01
              0.253948154109655E+00
              0.179091887666932E+00
              0.102683453064110E+00
             -0.244864226937826E+00
              0.170707512819875E+00
             -0.900693428169528E-01
             -0.485236549545203E-01
             -0.138153793665152E-02
             -0.345342576372370E+00
              0.557166110228671E+00
             -0.191648443141940E+00
              0.173144825883349E-01
              0.193018649269880E+00
              0.154326723821755E+00
              0.572228358610811E+00
             -0.175702849627033E+00
              0.546764972558744E+00
              0.488478568623593E+00
             -0.681337413805643E+00
              0.369822425141753E-01
             -0.121667892751960E+00
              0.889499825645717E-01
              0.251042981077223E-01
              0.164887121559181E+00
              0.476864594293681E+00
              0.743394098538625E+00
             -0.526720334776092E+00
              0.552137320805695E+00
             -0.754123208903466E+00
             -0.646219770173470E+00
             -0.119649148329358E+00
              0.127157181985882E-01
              0.601989279206643E+00
              0.219209147872224E+00
             -0.745412642867498E-01
             -0.591156708045365E+00
              0.480217210482876E+00
             -0.290617156503548E+00
              0.221474767355634E-01
             -0.359434889218635E-01
              0.961135009055990E+00
             -0.148482696656265E+00
             -0.767535306540086E+00
              0.223727986250551E+00
             -0.118601890523301E+01
              0.953688042222244E-01
             -0.288598276840643E+00
             -0.123544284662937E+00
             -0.177803388199601E+00
             -0.432514994653480E+00
              0.253349783517368E+00
             -0.265849490695251E+00
             -0.110151125898090E+00
             -0.551563545840136E+00
             -0.205029000804804E-01
             -0.410484069674639E+00
             -0.558998316483019E+00
             -0.740777921246235E+00
              0.534839713575013E-01
             -0.280919227854673E+00
              0.953388948051450E-01
             -0.955608409142759E-01
             -0.615009909030308E+00
             -0.471721572514093E+00
             -0.423850846760295E+00
             -0.437895328544905E+00
              0.375704728956351E+00
              0.309014372401486E-01
             -0.363553220414848E+00
             -0.187971036388655E+00
             -0.215838232575319E+00
              0.312285206442835E+00
             -0.218804577371776E+00
             -0.106723901716542E-01
             -0.246860530780873E+00
             -0.293260981978471E+00
             -0.312862561780609E+00
              0.294139836508416E+00
             -0.763241533719317E-01
             -0.672665213529880E+00
              0.566036361174912E+00
              0.313825410819858E+00
              0.105510326240208E-01
             -0.606225716312977E+00
             -0.547559322579451E+00
              0.322795369181854E-01
              0.489916360391929E-02
             -0.262363229819150E+00
             -0.317361179230168E+00
              0.207424045917883E+00
             -0.258359599742484E-01
              0.197554575924764E+00
              0.341305983934303E+00
              0.260810861947624E+00
              0.161602888522006E+00
              0.147454365345413E+00
             -0.172355358257829E+00
             -0.118471769650815E+00
             -0.129185469315797E+00
             -0.286849670720256E+00
             -0.342304945276229E+00
             -0.430592513168968E+00
             -0.249397115461174E+00
             -0.954498351014677E-01
             -0.526305234299677E+00
             -0.147625001325145E+00
              0.272766038524617E+00
             -0.654029702490140E+00
              0.284550994271241E+00
              0.242664359524423E+00
             -0.534368415355979E+00
             -0.401461326150718E+00
             -0.183241728272045E+00
              0.671571803612767E-01
             -0.301042850366971E+00
              0.559973896715279E+00
              0.495275056730995E+00
             -0.570509104469209E+00
              0.281441885158776E+00
              0.264744088432786E+00
              0.769113025837613E-01
              0.115732352881576E+00
             -0.312183526921424E+00
             -0.118998279857447E+00
              0.549060895163156E-01
              0.155725554076554E+00
              0.291697718648665E+00
             -0.408002483275298E+00
             -0.949819759179342E-01
              0.103272996275213E+00
              0.100064128134987E+00
             -0.280646573230437E+00
              0.137356905237807E+00
             -0.177641959367848E+00
             -0.132874364833617E+00
             -0.186407248130722E-01
             -0.454119549730171E+00
             -0.105302774060100E-01
             -0.326141696617968E-01
             -0.119521710764951E+00
              0.148364713292302E+00
             -0.376634480524973E+00
              0.437263672541766E+00
             -0.151127330793596E+00
             -0.100463425889965E+01
             -0.630327671225329E+00
              0.244838698656961E+00
             -0.323612117496065E+00
             -0.169909052778076E+00
             -0.159683067355296E+00
             -0.140254461417815E+00
             -0.774605767470430E+00
              0.132549589949291E-01
             -0.452166506044850E+00
             -0.244288689259014E+00
              0.136133953110095E+00
              0.599747724902968E+00
              0.443326926902045E-01
              0.311561405759481E-01
              0.447745388842882E+00
             -0.440681184391396E+00
              0.181303962368662E+00
              0.345771541657434E-01
             -0.413900020873374E+00
             -0.256002634937549E+00
              0.134237272224029E+00
              0.247115661621728E-01
              0.133586932494875E+00
              0.101258053618199E+00
             -0.171138562562117E+00
             -0.250679375023116E+00
             -0.349780735502393E+00
              0.367447733812636E+00
             -0.511747614010239E+00
             -0.371637394915693E+00
              0.114136932304036E+00
             -0.614326029219305E+00
              0.180575600872839E+00
              0.439484090446010E+00
             -0.105444813139290E+00
              0.168409119105638E+00
             -0.269279384911262E+00
             -0.165492520615159E+00
              0.797200248550434E-01
              0.261038436840413E+00
             -0.257785245522650E+00
              0.140915938111770E+00
             -0.104390032061514E+00
              0.852349383443469E-01
              0.120075832707831E+00
              0.623258303811351E-01
             -0.105660294541130E+00
             -0.582715257684718E-03
              0.641402962206996E-01
              0.199412630473737E+00
             -0.510591376036317E+00
             -0.350772062727147E-01
              0.378757457751269E+00
             -0.626975613841823E+00
              0.240713833823002E+00
             -0.817441330105937E+00
             -0.929506377916454E-01
             -0.999658147865812E-01
             -0.503174766561276E-02
             -0.971964302925499E-01
             -0.211220797493263E+00
             -0.888444563592929E-01
              0.745568736433488E-01
             -0.187588351058451E+00
              0.769185614099859E-01
              0.675531600369174E+00
             -0.395258270807455E+00
             -0.184507474920060E+00
              0.317540502875989E+00
              0.145726946588197E+00
              0.321819321694804E+00
              0.158199314440657E+00
              0.101309577332285E+00
             -0.975916992035384E-01
             -0.367208957099864E+00
             -0.342266305343342E+00
             -0.287929878021498E+00
              0.667357493420664E-01
             -0.308839675378291E+00
             -0.744157423105646E-01
              0.406280588280363E-01
              0.183061457880615E+00
             -0.402432516942589E-01
              0.441179017569958E+00
             -0.510672802850853E+00
              0.243496131361542E-02
             -0.631554479432517E-01
              0.237326653026652E+00
             -0.302860552473803E+00
             -0.204413368606871E+00
              0.656044465895317E-01
              0.319815715996972E+00
              0.566791514497143E+00
              0.213597607423496E+00
              0.347251533181130E+00
             -0.170013421499217E+00
              0.458123448997183E+00
              0.460960940556388E+00
              0.534407619584343E-03
              0.194523644528606E+00
              0.273412198238465E+00
             -0.141386114946966E+00
              0.135788245749334E+00
              0.484739854713648E+00
             -0.141883402520900E+00
             -0.367966244281845E-01
             -0.463751445797614E+00
              0.147409003189385E+00
             -0.126749403344265E+00
              0.167375144524106E+00
             -0.415376812533474E-02
             -0.281766105562937E+00
              0.338303335391541E+00
              0.283733303330090E+00
             -0.237953175311720E+00
              0.125816772951885E+00
             -0.442076974703683E+00
             -0.401973900664395E+00
              0.182337947733580E+00
             -0.498377257414700E+00
             -0.265739201961523E+00
             -0.156794809998049E-01
              0.641444084166550E+00
             -0.158114586614072E+00
             -0.862892021103137E-01
             -0.165902954170479E+00
              0.811221735256209E+00
              0.145231654250310E+00
             -0.304991207748208E+00
              0.524973357802957E+00
              0.458075811135344E+00
              0.253363500858935E+00
              0.600109831864914E+00
              0.650800335981253E+00
             -0.118477912096267E-01
             -0.205705546708962E+00
             -0.180552600783622E+00
              0.204992062657640E+00
              0.278062998092843E+00
             -0.605506726058556E-01
             -0.183992324333242E+00
             -0.411680294464031E+00
             -0.130533326366757E+00
             -0.340357803082576E+00
              0.248295936052286E+00
              0.133912382896778E+00
              0.443827152207815E+00
              0.108186156251538E+00
             -0.156509542238983E+00
             -0.616414514568416E-01
              0.288776300042079E+00
              0.652019339899672E-01
              0.472143558503280E+00
              0.399903852766037E+00
             -0.526439063987014E-01
             -0.699908884549059E-01
             -0.755926223176795E+00
              0.350977244118970E+00
              0.150598242012121E-01
              0.427177623106202E+00
             -0.206586953297288E+00
             -0.505463201799669E+00
              0.139158461371912E+00
              0.547035547783977E+00
             -0.193762821934686E+00
              0.481094131374729E+00
             -0.527889895786354E+00
             -0.192345067836787E+00
             -0.633942000827262E+00
              0.104669610082701E+00
              0.143042428089191E-01
              0.831619790739255E-01
             -0.461054965084578E+00
              0.689334263960326E+00
              0.404479260387789E+00
              0.355643680465563E-01
             -0.420560976427389E+00
              0.147789243022675E+00
             -0.116462889681322E+00
             -0.120818753250814E+00
             -0.208348476829751E+00
              0.116131052386421E+00
             -0.142705739971835E+00
             -0.133151013397520E+00
              0.183450632887646E+00
              0.165646926358761E+00
             -0.668592439636817E+00
              0.136167882713777E+00
              0.479604758715059E+00
              0.304098101834543E+00
             -0.901453874782984E-01
             -0.236453921399640E-01
             -0.273686715045169E+00
              0.408081451138208E+00
              0.492192392080519E-01
             -0.144425552276111E-01
             -0.410049818124811E-01
              0.797281733395883E+00
             -0.744518194429173E-01
              0.152303711106395E+00
              0.551318104689616E+00
              0.701946071698933E+00
              0.434361405620913E+00
              0.280418288790045E+00
             -0.473030250116257E+00
             -0.348806967281714E+00
              0.268072806258409E+00
              0.542041383456799E-01
              0.223203544864380E+00
              0.718320973810347E-01
              0.487311762226278E+00
             -0.585520196053460E+00
             -0.355722429702316E+00
             -0.977368907793230E-01
             -0.640929657957548E+00
              0.136935966309252E+00
              0.354605448921629E+00
             -0.336276094422674E-01
             -0.143607393680446E+00
              0.144866297062986E+00
              0.968482962892905E+00
              0.258733238629167E+00
              0.133679384239171E+00
             -0.339397717166317E+00
             -0.405838310078428E+00
             -0.979100922933691E-01
              0.213134991103329E+00
             -0.472846633430630E-01
              0.210463200286763E+00
              0.259161865896413E+00
             -0.443314396020931E+00
              0.208993687641054E+00
              0.200995929635469E+00
              0.408979711005921E+00
             -0.818202300094302E-01
              0.489487800463140E-01
             -0.536698627286878E-01
             -0.322610769001630E+00
             -0.546247351639796E+00
              0.542663094712615E+00
             -0.764010073424091E-01
             -0.371991570961245E+00
              0.688730240194111E-01
             -0.243237790774359E+00
              0.618216126221016E+00
             -0.165967157500285E+00
             -0.277871986881127E+00
              0.286771388410221E+00
             -0.114962143998320E+00
              0.351358658270502E+00
              0.340117926960863E-01
              0.658275024290141E+00
              0.378455376148945E+00
              0.114419493552603E+00
             -0.294639921764833E+00
              0.220101663721948E+00
             -0.391334943248440E+00
             -0.127835474116358E-01
              0.484342938610717E+00
             -0.178336085496520E+00
             -0.311242095983164E+00
             -0.166764108878999E+00
              0.371876902542101E+00
              0.768389699422014E-01
             -0.592540599694270E+00
              0.267922157199526E+00
              0.318853627203548E-01
              0.936423913907145E-01
             -0.354866590687307E+00
              0.961052602395447E-01
              0.249814377717436E+00
              0.328530503081882E+00
              0.477206750529067E+00
              0.279670542899978E+00
              0.576230180981050E-01
             -0.419401371914776E+00
             -0.296092494792574E+00
             -0.450962574656290E+00
             -0.118598759315966E+00
              0.261882159462963E+00
             -0.943547679058454E-02
              0.371936463648249E+00
             -0.233080399482531E+00
              0.112353124187242E+00
             -0.199875524647116E+00
             -0.196438875184860E+00
              0.437820249323090E+00
              0.386563047212058E-01
              0.456622711071101E+00
              0.487582669619910E-01
              0.131544705504729E+00
             -0.104918535680021E+00
              0.433562644463615E+00
             -0.138318811429699E+00
              0.562079198502113E-02
             -0.567859248743873E+00
             -0.477707203843509E-01
              0.505155312531648E+00
              0.465964540767888E+00
              0.175581330200647E+00
             -0.108309099247465E+00
              0.432464187723347E-01
             -0.185756596930975E+00
             -0.173938178813678E+00
              0.655055826151263E+00
              0.674271718040869E-01
             -0.220022988661738E+00
             -0.762755717736990E+00
             -0.283421907383122E+00
             -0.281459988322654E+00
             -0.425537534633392E+00
             -0.447161574408122E+00
             -0.520344149395552E+00
             -0.326129741463617E+00
             -0.177400304360060E+00
             -0.348968059411235E+00
              0.319376913117624E+00
             -0.108734151412684E+00
             -0.587195515849298E+00
              0.310075166067652E+00
             -0.263291988294310E+00
             -0.570573503576480E+00
              0.745931631625972E+00
             -0.190151341416639E+00
              0.968078929047202E-01
              0.272891764869748E+00
              0.137867480526806E+00
              0.189496862508966E+00
              0.106009146933268E-01
              0.111583143396217E-01
             -0.994326155459162E-01
             -0.549295027359973E+00
              0.795508054154090E-01
             -0.858190698804058E+00
              0.552560071608052E+00
             -0.283575613977351E+00
             -0.137068974114031E+00
             -0.151127739662540E+00
              0.192399446932284E+00
             -0.108209577398088E+00
              0.199072078288557E+00
             -0.427551813280925E+00
              0.268546252143885E+00
              0.336386102190599E+00
              0.421271050019099E-01
              0.760167661131295E-01
              0.163355721090318E+00
              0.750418112380919E-01
              0.216307053737403E+00
             -0.315438665145975E-01
             -0.570691391609856E+00
              0.734535534125000E-01
             -0.283101565883418E+00
             -0.250530498511665E-01
              0.427200721534049E+00
             -0.586977745337914E+00
              0.285131750438135E-01
              0.326168904168682E-01
              0.699672927091108E-01
              0.215574309932434E+00
             -0.929251090929343E-01
              0.608276421094618E+00
              0.247508729137346E+00
             -0.946537291941288E-01
             -0.543553720566603E-01
              0.556023599820932E-01
              0.574729932211832E+00
             -0.337858682616685E+00
             -0.736051472658334E+00
              0.222160873401884E+00
             -0.466692811305254E-01
             -0.133683827991586E+00
              0.144174247342502E+00
              0.543164644060642E+00
              0.290692528384782E+00
             -0.127812701651240E+00
             -0.403433200858149E+00
             -0.105189665909659E+00
              0.191936743601279E+00
             -0.144496588342345E+00
             -0.560186796760263E+00
             -0.829721943675297E-01
             -0.726479858440862E+00
             -0.378926473996795E+00
              0.654632446198658E+00
             -0.391806972806444E+00
             -0.535300320738599E+00
             -0.400470998321844E+00
             -0.303236698932215E+00
              0.265505103488613E+00
              0.631716951548191E+00
             -0.863103529342280E-01
              0.188607810090310E+00
             -0.158595841236350E+00
             -0.489832747049112E+00
              0.395148548157421E+00
             -0.362857340087646E+00
              0.170929047608870E+00
              0.185647945336547E+00
             -0.132534986048546E+00
              0.261568415683715E+00
              0.268415234709648E+00
              0.919461453996753E+00
             -0.683840846445585E-01
             -0.435982438892998E+00
             -0.492503650606398E+00
             -0.143893035444303E+00
             -0.349353648118917E+00
              0.664480551153225E+00
             -0.342691176804165E+00
              0.703864040577286E-01
              0.338180375642105E-02
             -0.126772121034818E+00
             -0.644951995603372E+00
             -0.517654318695904E-01
              0.744966182154144E+00
              0.184098227543129E+00
              0.529451372825056E-01
             -0.441990967189138E+00
             -0.378824172115910E+00
             -0.149405015780071E+00
              0.317511978846846E+00
             -0.210390723172162E+00
              0.720865795836774E+00
             -0.369102208183930E+00
              0.146187289653657E+00
             -0.732516513795387E-01
             -0.430324257296095E+00
              0.544159154512163E-01
             -0.422698245671880E+00
             -0.538662481458704E+00
              0.894785678011703E-01
              0.228656432140772E-02
              0.355178304018295E+00
              0.212082356467538E+00
             -0.263473480498195E+00
              0.156324727331346E+00
             -0.667399988116506E+00
             -0.328893269939379E+00
              0.687650835604704E+00
             -0.657192749467905E-02
             -0.171036916183676E-01
             -0.162954486415405E+00
              0.765293027646052E-03
             -0.995010380349202E-01
              0.704981932944092E+00
              0.307863246213722E+00
             -0.473900113341328E-01
              0.208645412821338E-01
             -0.275436591454939E+00
             -0.721052194874670E-01
             -0.440286164831495E+00
              0.399137512429154E+00
              0.557986551738031E-01
              0.458898503031220E-01
              0.144737198836614E+00
             -0.126260171871022E+00
             -0.180494434833622E+00
              0.870137371113296E-01
             -0.831389897336576E+00
             -0.554505818816715E-01
             -0.785611137392279E-01
             -0.385467863138627E-01
              0.329351813070737E+00
              0.478460845459665E+00
              0.134356676783778E+00
             -0.676022621718325E+00
              0.459742699211194E+00
             -0.184989902831625E+00
             -0.265180465767232E+00
             -0.637136906302715E+00
             -0.188284819887625E+00
              0.475477362141957E+00
              0.272415802641106E+00
              0.153414375624595E+00
              0.268188599513995E+00
             -0.409531540710026E+00
             -0.365971336909243E+00
              0.482811379877800E+00
              0.309174043670102E+00
              0.326974957053995E+00
              0.880118339227776E-01
              0.883335073404710E-01
              0.382137801524743E+00
              0.723199070771714E+00
             -0.109843943070731E+00
              0.303479900158375E+00
             -0.251774928258856E+00
             -0.331637200837876E+00
             -0.257742566930620E+00
             -0.256894587766445E+00
             -0.103293093327505E+00
             -0.330999650306260E+00
             -0.131284707920002E+00
             -0.923543776878338E+00
              0.234081346158191E+00
              0.223261564399113E+00
             -0.246884725558091E-01
             -0.258471575176130E+00
             -0.122167768547840E+00
             -0.415078775622589E+00
              0.368222601807902E-01
              0.577202706266895E+00
             -0.135454134119721E+00
             -0.144883735512774E+00
              0.121819089049886E+00
             -0.386032027144520E+00
              0.628785844957429E+00
              0.114776818975091E+00
              0.168259551137404E-01
              0.379629799142004E+00
             -0.658135448221047E-01
              0.434694601895063E+00
              0.158409487153492E+00
              0.107189410604747E-02
              0.104136189916694E+00
             -0.105349346717475E+00
              0.482540405293710E+00
              0.536915856689650E-01
              0.176326800842898E+00
             -0.704934129839399E-01
              0.809906102357225E-01
             -0.693965462616142E+00
             -0.258654253828387E+00
             -0.371558291251953E+00
              0.364254859363552E+00
             -0.273646114478137E+00
             -0.388914698638885E+00
              0.436386706058098E+00
             -0.107859131682047E+00
              0.297587232188730E+00
             -0.647383047385661E+00
              0.119633328870906E+00
              0.128368139185037E-01
              0.453379043860682E-01
             -0.108115728192493E+00
             -0.414525729560347E-01
              0.380831720623097E+00
              0.287638890029935E-01
             -0.392563030889981E+00
             -0.176557762896909E+00
              0.112308707662411E+00
             -0.851596131246963E+00
             -0.625213592675002E+00
              0.226391501358192E-02
              0.125555199223846E+00
             -0.402721276606112E+00
              0.126489956341933E-01
              0.741527707066170E+00
              0.196144239533490E+00
             -0.394051845996931E+00
              0.493802089511559E-01
             -0.735223798606172E-01
              0.112010201335839E+00
             -0.268398797102508E+00
              0.179788689656022E+00
              0.160164849789951E+00
             -0.650189768657350E-01
              0.826532553828016E+00
             -0.200376214564617E-01
             -0.223056055414381E+00
              0.255303812690628E+00
              0.318756220923816E+00
             -0.235896301628762E+00
              0.205942319516339E-02
              0.732330481629475E+00
             -0.123105925155245E-01
              0.363083112878626E+00
              0.129239346528648E+00
             -0.383686352336770E-01
             -0.837044769531463E-01
              0.323605026115668E+00
             -0.441753757588257E+00
             -0.183645575242413E-01
             -0.158470124437013E+00
             -0.296018504272238E+00
              0.704500383285558E-01
              0.193654116084266E+00
             -0.377487107960679E-01
             -0.134696883136165E-01
             -0.304346523183095E+00
              0.888896447187990E-01
             -0.118198498910401E-01
             -0.146311534033688E+00
             -0.145081334332891E+00
              0.115287382031119E+00
             -0.125427989739890E-02
             -0.292934109652588E+00
             -0.800119725221042E+00
              0.383462517204447E-01
              0.933940384989730E-01
             -0.369670269473064E+00
             -0.195327341949019E+00
              0.607073209463005E+00
              0.109743849176154E+00
              0.338474662578369E+00
              0.902383681292591E-01
              0.300696774231110E+00
              0.137254342653828E-01
             -0.288772335237629E+00
             -0.114163197400427E+00
              0.284423411423056E-01
              0.235074489119254E+00
              0.531109937334224E+00
              0.360434024326794E+00
              0.267588479199685E-01
              0.787578821342776E-01
              0.447106468590729E+00
              0.211520566436168E+00
             -0.499427872907900E+00
             -0.211246273324204E+00
              0.812546557409846E-01
              0.791075147349187E-01
              0.172681195349347E+00
             -0.372967650895161E+00
              0.144068033131555E-01
              0.315769352120463E+00
              0.348026738539217E+00
             -0.297538752399999E+00
              0.399319882972278E-01
             -0.125292020932308E-01
             -0.169086921546827E+00
             -0.152557262522041E+00
             -0.597720795002306E-01
             -0.117300099417672E+00
              0.962230673171325E-01
              0.310445536956346E+00
             -0.232219430660690E+00
              0.601533698744804E+00
              0.233520358098044E+00
              0.203209867167069E+00
              0.292473506416438E+00
              0.164112846365709E+00
              0.267950401780204E+00
              0.409382587354018E+00
             -0.357673848619368E+00
              0.466247530009120E+00
             -0.846138590164412E+00
              0.231107057433962E+00
             -0.763266730077534E+00
              0.578805278060703E+00
              0.593182871113967E+00
             -0.501002918639677E-01
             -0.340334626703421E+00
             -0.322266460157811E+00
             -0.380880430826395E+00
             -0.487171555133865E+00
              0.400591984453353E+00
              0.312930889903541E+00
              0.175866496936801E+00
              0.169429267433588E+00
              0.336079029701839E+00
             -0.307717856858489E+00
             -0.921118016588096E-01
              0.387600609369109E+00
             -0.960466311125487E-01
              0.361329692170687E+00
              0.579313387637614E+00
             -0.261690474856842E-01
             -0.565678474934059E+00
              0.629892570411794E-01
              0.153125344334535E-01
             -0.750726998976767E-01
              0.239983974601905E-01
             -0.475217341276019E+00
             -0.338834528596836E-01
              0.122944658857805E+00
              0.125304817489473E+00
              0.367911108426487E+00
             -0.307174714439765E+00
              0.357808859991773E+00
             -0.271813726424677E+00
              0.213052368956435E+00
              0.336131909940977E+00
 
 BEEF-vdW xc energy contributions
           1 :   -4.88945549338015     
           2 :    3.77501329240808     
           3 :   -2.28290322658347     
           4 :    1.02667044553859     
           5 :  -0.208944734023313     
           6 :  -0.208327727572811     
           7 :   0.341809035501515     
           8 :  -0.321526304069800     
           9 :   0.247297467732249     
          10 :  -0.178313155781911     
          11 :   0.129976763875470     
          12 :  -9.216785501053959E-002
          13 :   5.562885689772390E-002
          14 :  -2.665648336792170E-002
          15 :   1.028384932268089E-002
          16 :  -4.692987073617871E-005
          17 :  -1.539674668046853E-002
          18 :   3.599403989978001E-002
          19 :  -5.001723915720202E-002
          20 :   4.587825801741552E-002
          21 :  -2.570652052532640E-002
          22 :   3.593817767710838E-003
          23 :   5.735132136030607E-003
          24 :  -1.512011097529964E-003
          25 :  -3.484642149973460E-003
          26 :  -2.487300153683591E-003
          27 :   1.805090038602852E-002
          28 :  -3.652352838128969E-002
          29 :   5.280349375279147E-002
          30 :  -6.411208637648524E-002
          31 :  -0.697097953003181     
          32 :  -0.389246231982008     

     Writing output data file ./pwscf.save/
 
     init_run     :     63.79s CPU     65.94s WALL (       1 calls)
     electrons    :    421.08s CPU    454.17s WALL (       1 calls)
     forces       :     25.48s CPU     27.37s WALL (       1 calls)

     Called by init_run:
     wfcinit      :      0.81s CPU      0.84s WALL (       1 calls)
     potinit      :     55.78s CPU     57.44s WALL (       1 calls)
     hinit0       :      5.99s CPU      6.09s WALL (       1 calls)

     Called by electrons:
     c_bands      :     42.95s CPU     43.46s WALL (      14 calls)
     sum_band     :     21.71s CPU     25.89s WALL (      14 calls)
     v_of_rho     :    305.04s CPU    327.21s WALL (      15 calls)
     newd         :     10.38s CPU     14.49s WALL (      15 calls)
     PAW_pot      :      0.68s CPU      0.68s WALL (      15 calls)
     mix_rho      :     91.33s CPU     95.18s WALL (      14 calls)
     vdW_kernel   :     33.90s CPU     33.90s WALL (       1 calls)

     Called by c_bands:
     init_us_2    :      0.77s CPU      0.78s WALL (      29 calls)
     regterg      :     41.94s CPU     42.43s WALL (      14 calls)

     Called by *egterg:
     rdiaghg      :      0.01s CPU      0.01s WALL (      98 calls)
     h_psi        :     38.87s CPU     38.88s WALL (      99 calls)
     s_psi        :      0.42s CPU      0.42s WALL (      99 calls)
     g_psi        :      0.14s CPU      0.14s WALL (      84 calls)

     Called by h_psi:
     h_psi:calbec :      0.47s CPU      0.47s WALL (      99 calls)
     vloc_psi     :     37.73s CPU     37.74s WALL (      99 calls)
     add_vuspsi   :      0.47s CPU      0.47s WALL (      99 calls)

     General routines
     calbec       :      0.57s CPU      0.57s WALL (     117 calls)
     fft          :    214.62s CPU    214.64s WALL (    2814 calls)
     ffts         :     37.79s CPU     37.80s WALL (     521 calls)
     fftw         :     35.12s CPU     35.12s WALL (     476 calls)
 
     Parallel routines
 
     PWSCF        :  18m 5.72s CPU  19m32.25s WALL

 
   This run was terminated on:  16:34: 9  20Dec2022            

=------------------------------------------------------------------------------=
   JOB DONE.
=------------------------------------------------------------------------------=
