
     Program PWSCF v.6.7MaX starts on  3Jan2023 at 23: 1:47 

     This program is part of the open-source Quantum ESPRESSO suite
     for quantum simulation of materials; please cite
         "P. Giannozzi et al., J. Phys.:Condens. Matter 21 395502 (2009);
         "P. Giannozzi et al., J. Phys.:Condens. Matter 29 465901 (2017);
          URL http://www.quantum-espresso.org", 
     in publications or presentations arising from this work. More details at
     http://www.quantum-espresso.org/quote

     Parallel version (MPI), running on     1 processors

     MPI processes distributed on     1 nodes
     Reading input from ch2ch2oh-gas-ensemble.in
Warning: card &CELL ignored
Warning: card / ignored

     Current dimensions of program PWSCF are:
     Max number of different atomic species (ntypx) = 10
     Max number of k-points (npk) =  40000
     Max angular momentum in pseudopotentials (lmaxx) =  3
     file C.pbe-n-kjpaw_psl.1.0.0.UPF: wavefunction(s)  2S 2P renormalized
     file O.pbe-nl-kjpaw_psl.1.0.0.UPF: wavefunction(s)  2S 2P renormalized
     file H.pbe-kjpaw_psl.1.0.0.UPF: wavefunction(s)  1S renormalized

     **************************************************************************
     Initializing libbeef V0.1.2 with the BEEF-vdW functional.
     Citation: Wellendorff et al., PRB 85, 235149 (2012).
     **************************************************************************


     IMPORTANT: XC functional enforced from input :
     Exchange-correlation= BEEF-VDW
                           (   1   4  43  14   2   0   0)
     Any further DFT definition will be discarded
     Please, verify this is what you really want


     gamma-point specific algorithms are used

     Subspace diagonalization in iterative solution of the eigenvalue problem:
     a serial algorithm will be used

 
     G-vector sticks info
     --------------------
     sticks:   dense  smooth     PW     G-vecs:    dense   smooth      PW
     Sum       37625   37625   9423              5076407  5076407  634875
 


     bravais-lattice index     =            0
     lattice parameter (alat)  =      45.5359  a.u.
     unit-cell volume          =   80852.3477 (a.u.)^3
     number of atoms/cell      =            8
     number of atomic types    =            3
     number of electrons       =        19.00
     number of Kohn-Sham states=           14
     kinetic-energy cutoff     =      60.0000  Ry
     charge density cutoff     =     240.0000  Ry
     scf convergence threshold =      1.0E-06
     mixing beta               =       0.7000
     number of iterations used =            8  local-TF  mixing
     Exchange-correlation= BEEF-VDW
                           (   1   4  43  14   2   0   0)

     celldm(1)=  45.535855  celldm(2)=   0.000000  celldm(3)=   0.000000
     celldm(4)=   0.000000  celldm(5)=   0.000000  celldm(6)=   0.000000

     crystal axes: (cart. coord. in units of alat)
               a(1) = (   1.000000   0.000000   0.000000 )  
               a(2) = (   0.000000   0.950041   0.000000 )  
               a(3) = (   0.000000   0.000000   0.901343 )  

     reciprocal axes: (cart. coord. in units 2 pi/alat)
               b(1) = (  1.000000  0.000000  0.000000 )  
               b(2) = (  0.000000  1.052586  0.000000 )  
               b(3) = (  0.000000  0.000000  1.109456 )  


     PseudoPot. # 1 for C  read from file:
     /users/bkreitz1/quantum-espresso/potentials/C.pbe-n-kjpaw_psl.1.0.0.UPF
     MD5 check sum: a169b0ebad56f5ec0d79c4633f80bf22
     Pseudo is Projector augmented-wave + core cor, Zval =  4.0
     Generated using 'atomic' code by A. Dal Corso  v.6.7MaX
     Shape of augmentation charge: PSQ
     Using radial grid of 1073 points,  4 beta functions with: 
                l(1) =   0
                l(2) =   0
                l(3) =   1
                l(4) =   1
     Q(r) pseudized with 0 coefficients 


     PseudoPot. # 2 for O  read from file:
     /users/bkreitz1/quantum-espresso/potentials/O.pbe-nl-kjpaw_psl.1.0.0.UPF
     MD5 check sum: eef08af8b58d9ec80f8fdb78829eb7cf
     Pseudo is Projector augmented-wave + core cor, Zval =  6.0
     Generated using 'atomic' code by A. Dal Corso  v.6.7MaX
     Shape of augmentation charge: PSQ
     Using radial grid of 1095 points,  4 beta functions with: 
                l(1) =   0
                l(2) =   0
                l(3) =   1
                l(4) =   1
     Q(r) pseudized with 0 coefficients 


     PseudoPot. # 3 for H  read from file:
     /users/bkreitz1/quantum-espresso/potentials/H.pbe-kjpaw_psl.1.0.0.UPF
     MD5 check sum: ae98473e6dc62675f0d0baffdab24f65
     Pseudo is Projector augmented-wave, Zval =  1.0
     Generated using 'atomic' code by A. Dal Corso  v.6.7MaX
     Shape of augmentation charge: PSQ
     Using radial grid of  929 points,  2 beta functions with: 
                l(1) =   0
                l(2) =   0
     Q(r) pseudized with 0 coefficients 


     atomic species   valence    mass     pseudopotential
        C              4.00    12.01100     C ( 1.00)
        O              6.00    15.99900     O ( 1.00)
        H              1.00     1.00800     H ( 1.00)

     No symmetry found



   Cartesian axes

     site n.     atom                  positions (alat units)
         1           C   tau(   1) = (   0.4557919   0.4926211   0.4248864  )
         2           C   tau(   2) = (   0.5034803   0.4581017   0.4397679  )
         3           O   tau(   3) = (   0.5534559   0.4801485   0.4150033  )
         4           H   tau(   4) = (   0.4148226   0.4748203   0.4214804  )
         5           H   tau(   5) = (   0.4613438   0.5366586   0.4186084  )
         6           H   tau(   6) = (   0.4968468   0.4147740   0.4268763  )
         7           H   tau(   7) = (   0.5091299   0.4567107   0.4854627  )
         8           H   tau(   8) = (   0.5847896   0.4684732   0.4375255  )

     number of k points=     1  Gaussian smearing, width (Ry)=  0.0050
                       cart. coord. in units 2pi/alat
        k(    1) = (   0.0000000   0.0000000   0.0000000), wk =   2.0000000

     Dense  grid:  2538204 G-vectors     FFT dimensions: ( 225, 216, 216)

     Estimated max dynamical RAM per process >       4.25 GB

     Initial potential from superposition of free atoms

     starting charge   18.99987, renormalised to   19.00000

     negative rho (up, down):  1.692E-02 0.000E+00


     %%%%%%%%%%%%%%%%%%%%%%%%%%%%%%%%%%%%%%%%%%%%%%%%%%%%%%%%%%%%%%%%%%%%%%%%
     %                                                                      %
     % You are using vdW-DF, which was implemented by the Thonhauser group. %
     % Please cite the following two papers that made this development      %
     % possible and the two reviews that describe the various versions:     %
     %                                                                      %
     %   T. Thonhauser et al., PRL 115, 136402 (2015).                      %
     %   T. Thonhauser et al., PRB 76, 125112 (2007).                       %
     %   K. Berland et al., Rep. Prog. Phys. 78, 066501 (2015).             %
     %   D.C. Langreth et al., J. Phys.: Condens. Matter 21, 084203 (2009). %
     %                                                                      %
     %                                                                      %
     % If you are calculating the stress with vdW-DF, please also cite:     %
     %                                                                      %
     %   R. Sabatini et al., J. Phys.: Condens. Matter 24, 424209 (2012).   %
     %                                                                      %
     %%%%%%%%%%%%%%%%%%%%%%%%%%%%%%%%%%%%%%%%%%%%%%%%%%%%%%%%%%%%%%%%%%%%%%%%


     Starting wfcs are   17 randomized atomic wfcs
     Checking if some PAW data can be deallocated... 

     total cpu time spent up to now is       82.5 secs

     Self-consistent Calculation

     iteration #  1     ecut=    60.00 Ry     beta= 0.70
     Davidson diagonalization with overlap
     ethr =  1.00E-02,  avg # of iterations =  5.0

     negative rho (up, down):  1.299E-02 0.000E+00

     total cpu time spent up to now is      128.4 secs

     total energy              =     -86.44458923 Ry
     estimated scf accuracy    <       0.90862610 Ry

     iteration #  2     ecut=    60.00 Ry     beta= 0.70
     Davidson diagonalization with overlap
     ethr =  4.78E-03,  avg # of iterations =  2.0

     negative rho (up, down):  8.847E-03 0.000E+00

     total cpu time spent up to now is      172.0 secs

     total energy              =     -86.41083130 Ry
     estimated scf accuracy    <       0.21339930 Ry

     iteration #  3     ecut=    60.00 Ry     beta= 0.70
     Davidson diagonalization with overlap
     ethr =  1.12E-03,  avg # of iterations =  5.0

     negative rho (up, down):  5.886E-03 0.000E+00

     total cpu time spent up to now is      216.9 secs

     total energy              =     -86.42319744 Ry
     estimated scf accuracy    <       0.03971337 Ry

     iteration #  4     ecut=    60.00 Ry     beta= 0.70
     Davidson diagonalization with overlap
     ethr =  2.09E-04,  avg # of iterations =  5.0

     negative rho (up, down):  1.902E-02 0.000E+00

     total cpu time spent up to now is      264.5 secs

     total energy              =     -86.41680591 Ry
     estimated scf accuracy    <       0.01911706 Ry

     iteration #  5     ecut=    60.00 Ry     beta= 0.70
     Davidson diagonalization with overlap
     ethr =  1.01E-04,  avg # of iterations =  6.0

     negative rho (up, down):  1.214E-01 0.000E+00

     total cpu time spent up to now is      312.6 secs

     total energy              =     -86.41754298 Ry
     estimated scf accuracy    <       0.00798470 Ry

     iteration #  6     ecut=    60.00 Ry     beta= 0.70
     Davidson diagonalization with overlap
     ethr =  4.20E-05,  avg # of iterations =  5.0

     negative rho (up, down):  1.138E-01 0.000E+00

     total cpu time spent up to now is      360.0 secs

     total energy              =     -86.41784536 Ry
     estimated scf accuracy    <       0.00243843 Ry

     iteration #  7     ecut=    60.00 Ry     beta= 0.70
     Davidson diagonalization with overlap
     ethr =  1.28E-05,  avg # of iterations =  2.0

     negative rho (up, down):  1.174E-01 0.000E+00

     total cpu time spent up to now is      404.6 secs

     total energy              =     -86.41731550 Ry
     estimated scf accuracy    <       0.00155754 Ry

     iteration #  8     ecut=    60.00 Ry     beta= 0.70
     Davidson diagonalization with overlap
     ethr =  8.20E-06,  avg # of iterations = 10.0

     negative rho (up, down):  1.003E-01 0.000E+00

     total cpu time spent up to now is      453.9 secs

     total energy              =     -86.41671848 Ry
     estimated scf accuracy    <       0.00070218 Ry

     iteration #  9     ecut=    60.00 Ry     beta= 0.70
     Davidson diagonalization with overlap
     ethr =  3.70E-06,  avg # of iterations =  8.0

     negative rho (up, down):  7.961E-02 0.000E+00

     total cpu time spent up to now is      503.3 secs

     total energy              =     -86.41628088 Ry
     estimated scf accuracy    <       0.00039372 Ry

     iteration # 10     ecut=    60.00 Ry     beta= 0.70
     Davidson diagonalization with overlap
     ethr =  2.07E-06,  avg # of iterations =  8.0

     negative rho (up, down):  5.386E-02 0.000E+00

     total cpu time spent up to now is      552.3 secs

     total energy              =     -86.41592226 Ry
     estimated scf accuracy    <       0.00016801 Ry

     iteration # 11     ecut=    60.00 Ry     beta= 0.70
     Davidson diagonalization with overlap
     c_bands:  2 eigenvalues not converged
     ethr =  8.84E-07,  avg # of iterations = 20.0

     negative rho (up, down):  4.166E-02 0.000E+00

     total cpu time spent up to now is      605.0 secs

     total energy              =     -86.41589710 Ry
     estimated scf accuracy    <       0.00006501 Ry

     iteration # 12     ecut=    60.00 Ry     beta= 0.70
     Davidson diagonalization with overlap
     c_bands:  2 eigenvalues not converged
     ethr =  3.42E-07,  avg # of iterations = 20.0

     negative rho (up, down):  3.187E-02 0.000E+00

     total cpu time spent up to now is      656.9 secs

     total energy              =     -86.41592911 Ry
     estimated scf accuracy    <       0.00003875 Ry

     iteration # 13     ecut=    60.00 Ry     beta= 0.70
     Davidson diagonalization with overlap
     c_bands:  1 eigenvalues not converged
     ethr =  2.04E-07,  avg # of iterations = 20.0

     negative rho (up, down):  2.955E-02 0.000E+00

     total cpu time spent up to now is      708.2 secs

     total energy              =     -86.41592751 Ry
     estimated scf accuracy    <       0.00001188 Ry

     iteration # 14     ecut=    60.00 Ry     beta= 0.70
     Davidson diagonalization with overlap
     ethr =  6.25E-08,  avg # of iterations =  2.0

     negative rho (up, down):  2.430E-02 0.000E+00

     total cpu time spent up to now is      751.1 secs

     total energy              =     -86.41594487 Ry
     estimated scf accuracy    <       0.00000587 Ry

     iteration # 15     ecut=    60.00 Ry     beta= 0.70
     Davidson diagonalization with overlap
     ethr =  3.09E-08,  avg # of iterations =  7.0

     negative rho (up, down):  2.366E-02 0.000E+00

     total cpu time spent up to now is      796.2 secs

     total energy              =     -86.41594684 Ry
     estimated scf accuracy    <       0.00000168 Ry

     iteration # 16     ecut=    60.00 Ry     beta= 0.70
     Davidson diagonalization with overlap
     ethr =  8.82E-09,  avg # of iterations =  1.0

     negative rho (up, down):  2.285E-02 0.000E+00

     total cpu time spent up to now is      827.9 secs

     End of self-consistent calculation

          k = 0.0000 0.0000 0.0000 (317438 PWs)   bands (ev):

   -25.8873 -18.9772 -15.1781 -13.1488 -11.7019 -10.5290  -9.8831  -8.6227
    -6.8852  -4.2569  -1.2173  -0.5882  -0.3590  -0.3019

     the Fermi energy is    -4.2569 ev

!    total energy              =     -86.41594580 Ry

     total all-electron energy =      -310.791013 Ry
     estimated scf accuracy    <       0.00000083 Ry
     smearing contrib. (-TS)   =      -0.00282095 Ry
     internal energy E=F+TS    =     -86.41312485 Ry

     The total energy is F=E-TS. E is the sum of the following terms:
     one-electron contribution =    -218.91358775 Ry
     hartree contribution      =     112.60438834 Ry
     xc contribution           =     -21.06454551 Ry
     ewald contribution        =      64.18527122 Ry
     one-center paw contrib.   =     -23.22465116 Ry

     convergence has been achieved in  16 iterations

     negative rho (up, down):  2.285E-02 0.000E+00

     Forces acting on atoms (cartesian axes, Ry/au):

     atom    1 type  1   force =    -0.00106833   -0.00077937    0.00155287
     atom    2 type  1   force =     0.00130336    0.00207349   -0.00160471
     atom    3 type  2   force =     0.00822427   -0.00356725    0.00709875
     atom    4 type  3   force =    -0.00004998   -0.00005432   -0.00026100
     atom    5 type  3   force =    -0.00071481   -0.00019927    0.00003744
     atom    6 type  3   force =    -0.00002860   -0.00012446   -0.00010131
     atom    7 type  3   force =     0.00042879    0.00021644   -0.00018613
     atom    8 type  3   force =    -0.00809471    0.00243474   -0.00653591

     Total force =     0.016080     Total SCF correction =     0.000527

     negative rho (up, down):  2.285E-02 0.000E+00

     negative rho (up, down):  2.285E-02 0.000E+00

     negative rho (up, down):  2.285E-02 0.000E+00

     negative rho (up, down):  2.285E-02 0.000E+00

     negative rho (up, down):  2.285E-02 0.000E+00

     negative rho (up, down):  2.285E-02 0.000E+00

     negative rho (up, down):  2.285E-02 0.000E+00

     negative rho (up, down):  2.285E-02 0.000E+00

     negative rho (up, down):  2.285E-02 0.000E+00

     negative rho (up, down):  2.285E-02 0.000E+00

     negative rho (up, down):  2.285E-02 0.000E+00

     negative rho (up, down):  2.285E-02 0.000E+00

     negative rho (up, down):  2.285E-02 0.000E+00

     negative rho (up, down):  2.285E-02 0.000E+00

     negative rho (up, down):  2.285E-02 0.000E+00

     negative rho (up, down):  2.285E-02 0.000E+00

     negative rho (up, down):  2.285E-02 0.000E+00

     negative rho (up, down):  2.285E-02 0.000E+00

     negative rho (up, down):  2.285E-02 0.000E+00

     negative rho (up, down):  2.285E-02 0.000E+00

     negative rho (up, down):  2.285E-02 0.000E+00

     negative rho (up, down):  2.285E-02 0.000E+00

     negative rho (up, down):  2.285E-02 0.000E+00

     negative rho (up, down):  2.285E-02 0.000E+00

     negative rho (up, down):  2.285E-02 0.000E+00

     negative rho (up, down):  2.285E-02 0.000E+00

     negative rho (up, down):  2.285E-02 0.000E+00

     negative rho (up, down):  2.285E-02 0.000E+00

     negative rho (up, down):  2.285E-02 0.000E+00

     negative rho (up, down):  2.285E-02 0.000E+00

     negative rho (up, down):  2.285E-02 0.000E+00

     negative rho (up, down):  2.285E-02 0.000E+00

     negative rho (up, down):  2.285E-02 0.000E+00

     negative rho (up, down):  2.285E-02 0.000E+00
 BEEFens 2000 ensemble energies
             -0.158115947864058E+01
             -0.539113809045699E-01
             -0.321559932786843E+00
              0.108159036736900E+01
             -0.510299216979155E+00
             -0.382031457263780E+00
             -0.117128053849539E+01
             -0.239011515355868E+01
             -0.839812810639657E+00
             -0.905821200808431E+00
             -0.877174014281207E+00
              0.140769356034178E+00
              0.839904981385113E-01
             -0.122677908528017E+00
              0.998802907293230E-01
              0.115084799405169E+01
             -0.490825511854781E+00
             -0.240237746597749E+00
              0.579400916139139E+00
             -0.270540583281363E+01
              0.137810682335523E+01
             -0.457210286609286E+00
             -0.159180821151381E+00
             -0.217255273879833E+00
              0.728730858343010E-01
             -0.132031169696825E+00
              0.215790749001485E+01
             -0.560025270329184E+00
             -0.202951938538089E+00
             -0.137768224122197E+01
              0.167404347453252E+01
             -0.989313379905878E-01
             -0.102286591774015E+01
              0.439835599437933E+00
             -0.697349347624803E-01
              0.708205042601831E+00
              0.462286222463790E-01
             -0.116991406500473E-01
              0.920264694566251E+00
             -0.244686342043029E+01
              0.134693290552644E+01
              0.291145100957268E+00
             -0.302986553248285E+00
             -0.728457457026550E+00
              0.294368638378807E+00
             -0.435746730147548E+00
              0.124717706641955E+01
              0.857159513593322E+00
             -0.457420776797765E+00
             -0.780152986164637E+00
             -0.746017943786343E+00
             -0.910749594079249E+00
              0.542152656973679E+00
             -0.129382075315111E+01
              0.401983828659883E+00
              0.149052649381828E+01
              0.184354958301372E+01
              0.777366085602440E+00
              0.416432784711626E+00
              0.796513726417150E+00
              0.222667223269152E+01
              0.407989565612771E+00
             -0.135205759294604E+01
             -0.230001956185607E+00
             -0.726232302730372E+00
              0.152945673403009E+01
             -0.177104417251686E+01
             -0.143282949909267E+01
             -0.824333799673182E+00
             -0.467309560961937E+00
             -0.955365785725659E+00
              0.674550976698925E+00
              0.328036288913795E+00
              0.392008193982561E+00
             -0.934246854463183E+00
             -0.872244527775075E+00
             -0.143933498861227E+01
              0.772816320733776E+00
             -0.839355273106342E+00
              0.774381362867414E+00
             -0.193954966249476E+00
             -0.693538035017275E+00
             -0.123514719882837E+01
             -0.364550176920105E+00
             -0.416471188157857E+00
             -0.370039735247297E+00
              0.947097166314038E+00
              0.190266365947307E+01
             -0.111663380794110E+01
             -0.195500566112709E+01
             -0.445701540065638E+00
              0.266813513715852E+01
             -0.136005806067260E+01
              0.747860563134157E+00
             -0.288641586274856E+00
             -0.144811334034570E+01
              0.675834804183892E+00
              0.738143792758817E+00
             -0.356053495227465E+00
              0.683649186266237E+00
             -0.604361163674181E+00
             -0.150254994829961E+01
              0.246543256193358E+01
              0.111315443454972E+01
              0.513883559647341E+00
              0.308604110420167E+00
              0.566297145172503E+00
              0.198632414019124E+01
             -0.649709796176233E+00
              0.584409267136767E-01
             -0.338198257487993E+01
              0.443086271540181E+00
             -0.161695573440333E+01
              0.301558342894744E+00
              0.528748233355071E+00
             -0.907814728191003E+00
             -0.122086582286821E+01
              0.577345910095417E-01
             -0.748924327856750E+00
              0.109493469926051E+01
             -0.109755245670451E+01
             -0.208518866229204E+00
             -0.938905533825259E+00
             -0.850692131471025E-01
              0.117341561214548E+00
              0.558716047522383E+00
             -0.141948200352147E-01
             -0.150031752002045E+00
              0.163212625373951E+01
              0.224772767263311E+01
              0.120987171543648E+01
              0.158719534400706E+01
             -0.327631609538013E+00
              0.199165656632412E+00
              0.126231792204451E+01
              0.131050732512211E+00
             -0.186322316183766E+01
             -0.107898399565444E+01
             -0.118348207060919E+01
             -0.719380187806246E+00
              0.611648799392285E+00
             -0.297608149498431E+01
             -0.290425543573790E+00
              0.113840708112942E+01
             -0.987596869059230E+00
             -0.700764970322400E+00
              0.141502128597877E+01
              0.120064396713362E+01
             -0.683801259666055E+00
              0.808031733671912E+00
             -0.611509117158409E+00
              0.929949487537361E+00
              0.178395030709771E+00
              0.252834372076506E+00
             -0.199775362634484E+01
             -0.116772916980705E+01
             -0.216746042913318E+00
             -0.812183197915020E-01
             -0.105048786943313E+01
              0.271122379018437E+01
             -0.276535727251167E+00
             -0.646333255542650E+00
              0.967825072508521E+00
             -0.109246739969764E+01
             -0.923947980767426E+00
              0.786782240203340E+00
              0.296395735523697E+00
              0.251813196038988E+00
              0.393829855335230E+00
             -0.259924475716663E+00
              0.230467769586503E+00
              0.142742224893833E+01
             -0.663357815959880E+00
              0.539695876761993E+00
              0.216545178253321E+01
              0.765338767006657E+00
             -0.101819205664174E+00
             -0.502198872558727E+00
              0.379573408491667E+01
             -0.616071208752925E+00
              0.955408396413036E+00
              0.761782620316729E+00
              0.673896063874081E+00
              0.227789031738363E+01
              0.112150000146818E+01
             -0.137468748887801E+00
              0.615703135999984E+00
              0.127431116092624E+01
              0.949042555734930E+00
             -0.150863895518961E+01
              0.230017256174265E+01
             -0.210300667622957E+01
             -0.261065202090234E+00
              0.137168357125119E+01
              0.415034585342866E+00
              0.129267444057714E+00
              0.672869135839923E+00
              0.368253251816167E+00
              0.798258018273597E+00
             -0.152633632182900E+01
              0.820968346233162E-01
             -0.563796629366740E+00
             -0.143867528104093E+00
             -0.657569651498626E-01
             -0.320907603208620E+00
             -0.157944133774173E+00
              0.203090957314030E+01
             -0.114292864185821E+00
             -0.705711759022538E+00
             -0.262704802840310E-01
              0.349507286384855E+00
             -0.157422881523755E+01
             -0.135439083690253E+01
             -0.820506815312570E+00
             -0.153738510655870E+01
             -0.468313558586725E+00
             -0.985378510953237E+00
              0.448756146239690E+00
              0.520444518032370E-01
             -0.321382444432535E+00
             -0.200233537899177E+00
              0.119288660971712E+00
             -0.329698233377615E+00
              0.157855454349976E+01
             -0.215064014002679E+01
             -0.322151489893794E+00
             -0.332455594955484E+00
              0.370178769026740E+00
              0.522862358286884E+00
             -0.124935235684054E+01
             -0.296107334807481E+00
              0.109474224740738E+01
             -0.477040601886175E+00
              0.323513288139739E+00
              0.820231272083890E+00
             -0.134226952440351E-01
              0.281636376308521E+01
             -0.263332053119552E+00
             -0.847363707612267E+00
              0.550643488566394E-02
             -0.690354520871836E+00
              0.133222586639358E+01
             -0.118662252126022E+01
              0.337402236822978E+00
              0.121448894309821E+01
             -0.320989114271560E+00
              0.287548154159423E+01
              0.312218683490047E+01
             -0.172752140533060E+01
              0.140089148921258E+01
              0.578513294596252E+00
             -0.137602500310206E+01
              0.434018184363365E+00
              0.105358627532625E+01
              0.115195276864471E+01
              0.113594071944970E+00
              0.435377483996202E+00
              0.183013442775223E+01
             -0.562218554241867E+00
              0.215279388085794E+00
              0.164652328889613E+01
             -0.880930630221087E+00
             -0.596397495939706E+00
              0.145492846434840E+01
              0.753869728236896E+00
              0.188184978266432E+01
              0.833781738851288E+00
              0.338984371742646E+00
              0.609769422308526E+00
              0.104348760313474E+01
             -0.128234590082382E+01
              0.188479542114413E+00
              0.671874317442237E+00
              0.268728132898492E+00
              0.591390242361305E+00
             -0.151958923151411E+01
              0.782079839379037E+00
             -0.105499946963352E+01
             -0.758008475588867E+00
              0.473782829981581E+00
             -0.206655883134381E+00
              0.146959231459762E+01
             -0.342909670441692E+00
              0.719835706882646E+00
              0.724628572132522E+00
              0.188560024834586E+01
              0.127297854268756E+01
              0.125805794333870E+01
             -0.679702995781701E-01
             -0.278584370027231E+00
             -0.722336802028078E+00
              0.200744046562366E+01
              0.202256786432242E+01
              0.967822895739297E+00
             -0.699518724138120E+00
              0.120654137831537E+01
              0.531582684176879E-02
              0.417413197658028E+00
              0.170102590969461E+01
             -0.673125682849034E-01
             -0.251366218019281E+00
             -0.507808509821704E+00
             -0.150334369383754E+01
              0.236134273975035E+01
              0.125431699679248E+01
             -0.159252012112374E+01
             -0.540097804822465E+00
              0.614660209902393E+00
             -0.263582523371219E+00
              0.161173194575917E+01
              0.380825984450874E+00
              0.198536484689177E+01
              0.744060393355962E+00
             -0.572207037180352E+00
              0.446084061728300E+00
             -0.174475642675232E+00
             -0.614178294247136E+00
              0.418577631764926E+00
              0.392937927774433E+00
              0.220155600733292E+01
              0.186277918990098E+01
              0.139751000577515E+01
              0.163719065691127E+01
              0.163717288045989E+00
             -0.624311063596965E+00
              0.321988303232923E+00
             -0.816352758454966E+00
             -0.138759466746210E+01
             -0.139267713682700E+01
             -0.791222861283115E+00
             -0.264256460316939E+01
             -0.912163522993762E+00
             -0.212360243559276E+01
              0.503872859590933E+00
             -0.110201681278113E+01
              0.124789467584866E+01
             -0.241228722024476E+01
             -0.725911253539975E+00
              0.948409939997719E+00
              0.534614808869643E+00
             -0.222093853132885E+01
              0.129593290175736E+01
             -0.703145415186475E+00
              0.135486750695184E+01
             -0.680120140539063E+00
             -0.192854721481556E+01
              0.438428181176397E+00
             -0.162065845262863E+01
             -0.803640216521897E-01
             -0.290071936882731E-01
              0.102066618143872E+01
              0.307674893491948E+01
             -0.105358312744859E+01
             -0.927195604420665E+00
             -0.160921299947640E+00
             -0.193234502372733E+00
             -0.196185315523893E+01
             -0.138861355842050E+01
              0.122376192493309E+01
             -0.444383454983846E+00
              0.545437263383908E+00
             -0.120422077488059E+01
             -0.391224748230880E+00
             -0.102001255954447E+01
              0.117839859469460E+01
              0.312780914571100E+00
             -0.596451677425728E+00
             -0.435123811178575E+00
              0.322672900259542E+00
             -0.190858927491589E+00
              0.983890957923178E+00
             -0.648403952659356E+00
              0.273268394845733E+00
              0.821238601421997E+00
              0.308735740223154E+00
             -0.580930625451196E+00
              0.379309715088604E+01
              0.145232563981476E+01
              0.250957736029836E+00
              0.148450374935635E+00
             -0.148139890183340E+01
              0.811161942643967E+00
             -0.191483494358069E+01
             -0.843968147121640E+00
             -0.146498413087350E+01
             -0.438118877021505E+00
              0.144810610462710E+01
             -0.142024824326696E+01
              0.648181480299874E+00
             -0.991245942721743E-01
              0.357170908445901E-01
             -0.763377259274229E+00
             -0.101174428072086E+01
             -0.144930593840423E+00
             -0.816865582535258E+00
             -0.560597088405758E+00
             -0.969750809953972E+00
             -0.131267871302781E+00
             -0.780303695002586E+00
             -0.119529050098917E+01
              0.530924112396860E+00
             -0.303336672974077E+00
              0.580864027176909E+00
              0.213082279586297E+00
             -0.185073108094079E+01
             -0.125017716681410E+01
             -0.122693877676852E+01
              0.795133311059494E+00
             -0.162353339356289E+00
             -0.151809612307493E+01
              0.138557490873793E+01
             -0.104610196999425E+01
              0.143762554442391E+01
             -0.761662783865618E+00
             -0.120169855860832E+01
              0.610552550723584E+00
             -0.178819750030003E+01
             -0.776414924776006E+00
              0.143715015324668E+01
              0.495844263118572E+00
             -0.105883608291890E+01
              0.136330689659645E+01
             -0.400951555482383E+00
             -0.909007698653188E+00
             -0.737244888789452E+00
             -0.127894265793341E+01
              0.624963941594483E+00
             -0.212996290831157E+01
             -0.187530588895427E+01
             -0.193269229589072E+00
             -0.709442347812564E+00
             -0.148177319923878E+01
              0.187183530521703E+01
              0.337854516923002E+01
             -0.535201033137161E+00
             -0.867044404073880E-01
             -0.148314296891993E+01
              0.162015201655817E+01
              0.540072985870897E+00
             -0.504042834693156E+00
             -0.891063849053443E+00
              0.358327870405932E+00
             -0.147324591518554E+01
             -0.273836826183169E+00
             -0.212425692672987E+01
              0.834991800092785E+00
              0.283836832222691E+00
             -0.141808157898883E+00
             -0.276783472190234E+00
             -0.102414345301259E+01
             -0.317202893768684E+00
              0.334876656326378E+01
             -0.382355641818359E+00
             -0.118708293423594E+01
             -0.169422076512477E+01
              0.344341998033254E+00
             -0.934104901764721E+00
              0.240198702971505E+00
              0.819955682616917E+00
              0.113612445085590E+00
              0.883683126605134E+00
              0.442591665292259E+00
              0.143976372591004E+01
              0.619442679459864E+00
             -0.892109902075927E+00
              0.133030831712310E+01
              0.844848182393162E+00
              0.311555625364907E+00
              0.905289307204758E+00
             -0.764004848449084E+00
              0.174935394026947E+01
              0.634148128497869E+00
             -0.852708887238123E+00
             -0.136311318858091E+00
             -0.404219703422604E+00
              0.383485065746953E+00
             -0.639985558357834E+00
             -0.284637971332522E+00
             -0.319442068515364E+00
              0.199405277941209E+01
              0.143169645653007E+01
             -0.159542629390539E+01
             -0.190631347093861E+00
             -0.123464860571268E+01
             -0.325787258699609E+00
             -0.519808528247777E+00
              0.274742558006857E+00
             -0.892408456610440E-01
             -0.694080025233307E+00
              0.411324979532842E+00
             -0.226249897066706E+00
             -0.180762938681011E+00
              0.214446141295871E+01
              0.375715538729467E+00
             -0.204241084762569E+01
             -0.941734096698259E+00
              0.234853401638578E+01
              0.578412930343973E+00
             -0.201684626975110E+00
              0.270571246687492E+01
             -0.421800984557128E+00
             -0.187889791681228E+00
             -0.287092824639526E+00
              0.391252074380994E+00
              0.808136779510569E+00
              0.606562676676377E-01
              0.698929851220246E+00
             -0.277325177392381E+00
             -0.969951739722235E+00
             -0.958419017212138E+00
             -0.119372304206007E+01
              0.998811334552256E+00
              0.365052540325987E+00
              0.928988099055048E+00
              0.391648736110500E+00
              0.221468868782663E+01
              0.496463420388562E+00
             -0.188105885632227E+01
             -0.807518195386554E+00
              0.824637530372856E-01
             -0.685844243292399E+00
              0.156124563989618E+01
             -0.401367035023402E+00
              0.424583020836112E+00
              0.135762774019423E+01
             -0.199073051378932E+01
              0.363055631546108E+01
              0.478037394315127E+00
              0.590025323067307E+00
              0.933255015283239E+00
              0.955176457422784E-01
             -0.578720766140446E-01
              0.796676574801051E+00
             -0.855367676882942E+00
              0.212418011651534E+01
              0.185549822959604E+01
             -0.952932710339052E+00
              0.425905713260249E+00
              0.178297907117657E+01
             -0.535647620749542E+00
              0.496724846695209E+00
              0.821022765252666E+00
              0.103054582617173E+01
             -0.183118492665699E+01
             -0.151155728521488E+00
             -0.671283605392582E+00
             -0.156298948989157E+00
             -0.164784423609903E+00
              0.161492578242756E+00
             -0.330530885641904E+00
             -0.740082178843991E+00
              0.396520862474139E+00
              0.161044869819110E+00
              0.131191929799574E+01
             -0.113330416086143E+01
              0.111422074531091E+01
              0.123438531399688E+01
             -0.239994285564878E+00
              0.185624970568615E+01
             -0.165528326085788E+01
             -0.254296329635487E+01
             -0.187105526897769E+00
             -0.171327510465151E+00
              0.371758516821075E-02
              0.190717073575866E+01
             -0.393817459331167E-01
              0.104564233364195E+01
              0.145409371640681E+01
              0.957933785919295E+00
             -0.136572335949172E+00
              0.147239489956767E+01
             -0.415115218306123E+00
             -0.957386255848457E+00
             -0.901988135744538E+00
              0.245260366864474E+00
              0.881222578745379E+00
             -0.707093305756676E-01
              0.838928280135622E+00
              0.106711141026841E-01
              0.138121991397013E+01
              0.419182964084253E+00
              0.190237648738362E+00
              0.232779523022142E-01
              0.730239564385212E+00
              0.101227368600911E+01
              0.376074937132882E+00
             -0.851550331396282E-01
             -0.133012766453198E+01
              0.741827542407129E+00
              0.511845278661085E+00
              0.825359580211197E+00
              0.753070067275052E+00
              0.892740475919636E+00
             -0.225706217857609E+00
              0.826994850436611E+00
             -0.714952123729404E+00
             -0.480104127137508E-01
             -0.130041938056030E+01
             -0.862809074623302E+00
              0.106423542329586E+01
             -0.217355221315899E+01
              0.606333544971920E+00
              0.339467500761808E+00
              0.211759931852346E+01
             -0.348636565202308E+00
              0.801005577775065E+00
             -0.286422179983449E+00
             -0.121739176391390E+01
             -0.163713190067726E+01
             -0.361761858991002E+00
             -0.224172171305337E+01
              0.216209767565564E+00
             -0.520038094254782E+00
              0.804830478783334E+00
              0.576864599759086E+00
             -0.700795382053059E+00
             -0.733977582740412E+00
              0.105790986015521E+01
             -0.139127305897392E+01
             -0.330566051790536E+00
             -0.404593547760772E+00
              0.646457014251515E+00
              0.101620257609543E+00
              0.974693197397816E-01
             -0.380648066415040E+00
              0.132084608470560E+01
             -0.143774541538270E+01
              0.187111608117974E+00
              0.147520207871478E+01
             -0.891890816740552E+00
              0.854540015278076E-01
              0.297413752723745E-01
             -0.162327945046698E+01
             -0.965353993529945E+00
             -0.555092425882534E-01
              0.755062664493864E+00
              0.840361211181580E+00
              0.115913338243641E+00
             -0.280713009233867E+00
              0.433552581210269E+00
             -0.100288171583037E+01
             -0.109459625336205E+00
             -0.129273827535117E+01
             -0.641244259312940E+00
              0.123776790189469E+01
             -0.748759359806607E+00
              0.171574516408023E+01
             -0.561634658432241E+00
              0.836830387223570E+00
              0.626832345733731E+00
             -0.147453680840339E+01
             -0.642152963495366E+00
              0.228936918284698E+00
             -0.101093534082361E+01
             -0.101819117298516E+01
             -0.217822725338592E+01
             -0.137454503493324E+01
             -0.122794320322667E+01
             -0.111599953532694E+01
              0.154135097564092E-01
              0.593800366824075E+00
              0.263130644133338E+00
              0.664929639615215E+00
             -0.144303052802385E+01
              0.319719435780769E+00
              0.674455688649128E+00
             -0.169419662662567E+01
             -0.141304755727928E+01
             -0.946720556922765E+00
             -0.793359841128305E+00
              0.373291594067972E+00
             -0.750369029964730E-01
             -0.105253250201678E+01
              0.710404147622361E+00
             -0.553562843151556E+00
              0.128831116262540E+01
             -0.216245997057734E+01
              0.155856570948941E+01
             -0.262613150203449E+00
             -0.107850705045210E+01
             -0.688967575970897E+00
             -0.213781478517725E-01
              0.120382263567353E+01
             -0.171993650485475E+01
             -0.317342161904372E+00
             -0.406147509234421E+00
              0.102238310026207E+01
              0.196576141936553E+01
             -0.245770356902607E+01
              0.226274080251216E+01
              0.968048272705215E+00
             -0.188075703521779E+01
             -0.783617311057866E+00
              0.193391986392161E+01
              0.139841701806467E+01
             -0.509441551496261E+00
             -0.180038596019452E+00
              0.442213459289515E+00
              0.190486412312991E+01
             -0.146185469025970E+01
              0.327996957196701E+00
             -0.183320073253098E+00
              0.665512965209533E+00
             -0.173446193784760E+01
             -0.692252179914756E-01
             -0.676714489128974E+00
              0.119280384330314E+01
              0.949785742194599E+00
             -0.218400832138435E+01
             -0.117105813538673E+01
             -0.512612597921860E+00
             -0.106241385942915E+01
             -0.318068051764581E+00
             -0.459587917304596E+00
              0.111834041020670E+01
              0.107489783221050E+01
             -0.584528763114669E-01
             -0.107152203193057E+01
             -0.210587359931296E+01
              0.123350991907125E+01
             -0.114438816119863E+01
             -0.909799404187883E+00
              0.184303652678630E+00
             -0.905971657500100E+00
             -0.999111571741499E+00
             -0.761568745721608E+00
             -0.124751174186686E+01
             -0.596650807930112E+00
             -0.122919865511706E+01
              0.136972700007330E+01
              0.147090100954774E+01
             -0.252865291965486E+00
             -0.525153164673554E+00
              0.787354473938500E-01
              0.104483382098131E+01
             -0.210535172766276E+01
             -0.588905633438818E+00
              0.123158638051810E+01
              0.174252960052154E+01
             -0.260692485207269E+00
              0.273546066203993E+00
              0.128889578466774E+01
              0.371425600009287E+00
              0.217030307256554E-01
             -0.959404437889173E+00
              0.365469581590988E+00
             -0.812559770776965E+00
             -0.219895455229302E+00
             -0.514025285813407E+00
             -0.357923730130318E+00
              0.578334847289469E+00
              0.195221706500682E+01
             -0.175020118654432E+00
              0.494810930680583E-01
             -0.225480747082604E+01
             -0.448600108853617E+00
             -0.889655580645792E+00
             -0.180536181983193E-02
             -0.113924592596943E+01
              0.219815533987024E+01
              0.214294736761322E+01
              0.460473934331489E+00
             -0.555847177253671E+00
              0.436237923566285E+00
              0.519174008592647E+00
             -0.113191380071978E+01
             -0.210350058284581E+00
              0.464481183892019E+00
              0.312002942508244E+00
              0.126083275228731E+01
              0.987855316181362E+00
             -0.527003917712644E+00
              0.554083764388916E+00
             -0.239436553100149E+01
             -0.617781904576076E-01
              0.221476472743817E+01
              0.451150214968824E+00
             -0.552753910687365E-01
              0.665322151570530E+00
             -0.581550010372357E+00
              0.217603637133962E+01
             -0.478981880144913E+00
              0.192300832478835E+01
              0.933139342392967E+00
             -0.108871336078378E+01
              0.812161966534007E+00
             -0.689893409146210E+00
             -0.167058886143091E+01
             -0.195546320635003E+00
             -0.134333923362616E+01
             -0.128966792806619E+01
             -0.392001280391918E-01
              0.910376331012095E+00
             -0.320775824665847E+00
             -0.767025288318671E+00
              0.178901847689900E+00
             -0.162325127747039E+01
             -0.908318458441739E-01
             -0.214231863206352E+01
              0.132509279049196E+01
             -0.106430859571805E+00
             -0.120545036725779E+01
             -0.421224631263729E+00
              0.428971115880516E+00
             -0.916674464722567E+00
             -0.109328032801571E+01
              0.222115064449520E+01
             -0.684590847033380E+00
             -0.948768062177642E+00
              0.770628622160655E+00
             -0.510291870433963E+00
              0.138518858852427E+01
             -0.375995472575283E-01
              0.786563511373037E-01
              0.267205670413760E+01
             -0.241465220211500E+00
             -0.946398306741296E+00
             -0.116020952982918E+01
             -0.128238336490123E+01
             -0.914777546059574E+00
              0.732926364005191E+00
              0.731443476368876E+00
              0.695957603170842E+00
              0.183632445269942E+01
              0.118014625253275E+00
              0.549521503288623E+00
             -0.144636033286729E+01
              0.440212876159034E-01
             -0.420729105925300E+00
             -0.667025817070831E+00
             -0.141137276541523E+00
              0.818562427788277E+00
              0.933534626360364E+00
             -0.546114226330283E-01
              0.296555083714512E+00
              0.688460756484181E+00
              0.868981175703978E+00
             -0.567463799361926E+00
             -0.233164624570712E+00
              0.195493692725361E-01
             -0.641222941943280E+00
             -0.100053460023730E+00
             -0.944279594331769E+00
              0.191839031132721E+01
              0.150943779747089E+01
             -0.425217207307581E+00
              0.389793796463916E+00
             -0.134299239744720E+00
             -0.747953856757652E+00
              0.912868506586264E+00
             -0.227318678403423E+00
              0.896509782041365E+00
             -0.118848160111714E+01
              0.437064134516926E+00
             -0.189193276679772E+00
             -0.132850972837709E+01
             -0.585424776803464E+00
              0.591974844260121E+00
             -0.240267288568679E+01
              0.950204359355853E+00
              0.116065696962807E+01
             -0.237952977427196E+00
             -0.178657676204778E+00
             -0.850282963229487E-01
              0.663728438121952E+00
             -0.828114362813374E+00
              0.767101740935369E+00
              0.796755174355713E+00
             -0.227513155696202E+01
             -0.899316899861786E+00
              0.588350382785880E+00
             -0.314974111573440E+00
              0.117802375999349E+01
             -0.152189909128985E+01
             -0.209759833605883E+00
             -0.985144797098200E+00
             -0.319081481779787E+01
              0.194448684635617E+01
             -0.148976843757976E+01
             -0.164232539428713E+01
              0.157766223179336E+00
              0.318085821516935E+01
              0.162770562828294E+00
             -0.776906713345688E+00
             -0.267080778411763E-01
             -0.101355890886341E+00
             -0.214421281908207E+01
             -0.137603565702008E+01
              0.210595968475476E+01
             -0.280887934248772E+00
             -0.903027811665503E+00
              0.121856186458086E+01
             -0.808866985378061E+00
              0.839417653896216E+00
              0.120011628734902E+01
             -0.133849160544611E+01
             -0.696093221176199E+00
             -0.796182048667495E+00
             -0.405906209118907E+00
             -0.490544741589356E+00
             -0.425554157454089E+00
              0.479355559499382E+00
             -0.869608157221740E+00
              0.690187597085516E+00
              0.137745725461703E+01
             -0.198474150749598E+00
             -0.495532828833927E+00
              0.360181143052931E+00
              0.134719124948306E+01
              0.134939741041593E+01
              0.220300937065883E+00
             -0.243103450295266E+00
             -0.253587071642212E+00
             -0.131557877620907E+01
              0.994353683523416E+00
             -0.622949857853332E+00
              0.552208608390572E+00
             -0.325879673216498E+00
              0.652532563323305E+00
              0.425566705055159E+00
             -0.201655578396481E+01
             -0.631432740850407E+00
             -0.193660939911884E+01
             -0.981543644423711E+00
              0.123411293889450E+00
             -0.480533385371797E+00
              0.855573659097137E+00
             -0.696528305852731E+00
              0.750866251937761E-01
              0.181358919427403E+00
              0.176233959289933E+01
              0.910318412381049E+00
             -0.779653687285694E+00
             -0.353290446312498E-01
              0.371275628293819E+00
              0.917106090000247E+00
             -0.714982109533047E-02
              0.137946057374817E+01
              0.692397382973239E+00
              0.221220777959399E+01
              0.981701736348031E-01
              0.155320787291365E+01
             -0.671392725731032E+00
             -0.976296714775254E+00
              0.766956474334126E-01
              0.260554533017466E+00
              0.583808124538859E+00
             -0.459796153095050E+00
             -0.285062701351736E+00
              0.565331568224740E+00
             -0.116043606291265E+01
             -0.145177468039873E+01
              0.194701637458523E+01
             -0.154180188583553E+00
             -0.929771965732555E+00
             -0.123072660296582E+00
             -0.337939059156259E+00
              0.104163038018218E+01
              0.893883710095428E+00
             -0.494202924799216E+00
             -0.936842776821445E-02
             -0.649716679757682E+00
             -0.865132288366857E+00
             -0.617459975004625E+00
             -0.240723961396573E+01
              0.923046239280279E-02
             -0.161504387396688E+01
             -0.144722240979574E+01
             -0.942509814340685E+00
              0.528522017617243E+00
             -0.958536347883642E+00
              0.580209477277711E+00
             -0.157382791102171E+01
             -0.546539512763289E-03
             -0.104541843793189E+01
              0.179762881276140E+00
              0.192722675389636E+00
              0.845962236450033E+00
             -0.500690210725374E+00
             -0.469995172196432E+00
              0.769134306042160E+00
              0.147753023786774E+01
              0.796626893751964E+00
              0.255610817019534E+00
             -0.182088452352951E+01
             -0.367220123947040E+00
             -0.681185446911822E+00
             -0.152772127537184E+01
              0.105706022979341E+01
             -0.842168168431089E+00
             -0.187383562321011E+00
             -0.661588635535194E+00
             -0.245574809711733E+01
              0.138290807389110E+01
             -0.436927977207088E+00
              0.957472029153978E+00
             -0.183409030757367E+01
              0.160736423913712E+01
              0.147966899821448E+00
             -0.656126987057418E+00
              0.228722374425042E+00
             -0.509713956173012E+00
             -0.157513487233408E+01
              0.434267022879104E+00
              0.918741844300767E+00
             -0.201714260162618E-01
             -0.855479456364908E+00
             -0.373694887536786E+00
              0.503688847489087E+00
              0.895112755841799E+00
              0.153452037989059E+01
              0.556093773943331E+00
             -0.572614132815962E+00
              0.242385451846920E+01
              0.556071843487853E+00
              0.114035303274664E+01
             -0.397703127937831E+00
              0.736411515435583E+00
              0.563372540533869E+00
             -0.152137625539103E+01
             -0.547452349811694E+00
             -0.985040083982226E+00
             -0.985901031524341E+00
             -0.286658332382329E+00
             -0.226157872346334E+00
             -0.110417576009105E+01
             -0.275188759170056E+01
             -0.672666833710666E+00
              0.352383590627440E+00
              0.147367809352126E+00
              0.364754480346260E+00
              0.102030144581775E+01
              0.291630866875537E+00
              0.780749876012404E+00
             -0.108182835726485E+01
              0.106151823388547E+01
             -0.998233018687881E+00
             -0.166694611895855E+01
              0.491079478040625E+00
             -0.101904549899180E+01
             -0.992720133847396E+00
             -0.393115405595951E+01
             -0.188465494741775E+00
              0.206505425110137E+01
              0.102460717015877E+01
             -0.246826982172061E+00
             -0.255134098679035E+00
              0.103740815209790E+01
              0.157447243371680E+01
             -0.965592575101628E+00
             -0.323185743574241E+00
             -0.881691728670125E+00
             -0.823098341113292E+00
             -0.750533179081161E+00
              0.287791119015762E+00
              0.173120757980010E+01
             -0.161196121310937E+01
             -0.133912941116808E+01
              0.858348867000114E-01
             -0.349323456214300E+00
             -0.440803064647684E+00
             -0.221450491383801E+01
              0.151027045368994E+01
              0.495419442899689E+00
              0.211931632928073E+00
              0.129322967677408E+01
             -0.798053010687590E+00
              0.830807601643584E+00
              0.715824297496948E+00
              0.616209773058536E-01
             -0.200590584626630E+00
              0.226122513810434E+00
             -0.380995054529376E+00
              0.127512601364769E+01
             -0.999074664367134E+00
              0.112876704569318E+01
              0.232007441652335E+00
              0.399570603933951E+00
              0.487377854912818E+00
             -0.200049457248239E+01
              0.227324082613129E+00
             -0.163316447652993E+01
             -0.119661690214005E+01
             -0.118176827556313E+01
             -0.127459656215292E+01
              0.923855331755163E-02
              0.447843988457563E+00
              0.122392022810090E+01
              0.189078989555995E+00
              0.359443710144243E+00
             -0.171633667477749E+01
             -0.692058854240198E+00
              0.801013201548618E+00
             -0.629002438877440E-01
             -0.753864411767680E-01
             -0.242880721993410E+00
              0.888429278941902E+00
             -0.223986242737184E+01
              0.328982736622575E+00
              0.534915972181038E+00
              0.975456450468247E+00
              0.922269912462226E+00
             -0.139844185441274E+01
              0.379534212585869E+00
              0.152286379170171E+00
              0.176816163628642E+00
              0.122500701115809E+00
             -0.488114320883070E+00
             -0.105140582577379E+01
              0.432850237608772E+00
              0.143938965394552E+01
             -0.413538353240206E-01
              0.336223836865644E+00
              0.304946458105778E+00
             -0.756932244553442E+00
             -0.787851721933851E+00
             -0.301882127897620E+01
             -0.949725211592574E+00
             -0.141813485476703E+01
             -0.164117142355526E+00
             -0.166622848231506E+01
              0.186537665116101E+01
             -0.823573778311578E+00
             -0.134727433107409E+01
             -0.387127009190678E+01
              0.166770354175920E+01
              0.359856550872886E+00
              0.200538637463510E+00
             -0.150363425997492E+01
              0.108306916359750E+00
             -0.389135923772549E+00
             -0.773297172768177E+00
              0.199200906507702E+00
              0.791187048381611E+00
              0.130886802557525E+00
             -0.493415655958209E+00
              0.779871105304917E-01
              0.283957844638163E-01
              0.285352599878081E+00
             -0.164265714161648E+01
              0.179805736990966E+01
             -0.102186958417010E+01
             -0.647728895291154E+00
             -0.124414519175329E+01
             -0.266284767450935E+01
              0.127047220651635E+00
             -0.139467520410432E+01
             -0.469181941390862E+00
              0.764459335969619E+00
             -0.658468322271519E+00
             -0.264955409102512E+00
             -0.315131804576872E+00
             -0.519809513514399E+00
              0.749754998573426E-01
              0.126660321660072E+01
             -0.125748283687432E+01
              0.253714482549460E+01
             -0.602463208239215E+00
              0.813334175979679E+00
             -0.417324923095246E+00
              0.305086769217162E+00
             -0.298000974052789E+00
              0.111477516281154E+01
              0.155991489920065E+01
              0.450883516072630E+00
              0.113259180161508E+01
             -0.746672536261532E+00
             -0.165774877965990E+00
             -0.593816220702067E+00
              0.155825002976086E+01
              0.134516152350055E+01
              0.983730112753847E+00
             -0.331108850007229E+00
             -0.641916740052610E+00
              0.599753814943284E+00
             -0.702980370517323E+00
             -0.358605278390636E+00
             -0.154245423849052E+00
             -0.859524733226286E+00
              0.122216774271712E+01
             -0.259664522664034E+00
              0.890140562072412E+00
              0.518555420120664E+00
              0.385266578960625E+00
             -0.842362630904307E+00
              0.642456615638463E+00
             -0.338799384101740E+00
             -0.173671772705243E+00
             -0.276986970216289E-01
             -0.120229010639583E+01
              0.192039524902061E+01
             -0.678845728087117E+00
              0.486250388975051E-02
              0.593160483149547E+00
              0.506425805607926E+00
              0.189639706343656E+01
             -0.543739555336856E+00
              0.185643126943596E+01
              0.165125249035226E+01
             -0.230857688654232E+01
              0.187862265194026E+00
             -0.457364161286447E+00
              0.282314745704690E+00
              0.108897615554362E+00
              0.515437610023653E+00
              0.157786532735830E+01
              0.242353572545806E+01
             -0.182277142153805E+01
              0.187929746014633E+01
             -0.245532777769666E+01
             -0.209851554212084E+01
             -0.352153531744106E+00
              0.305206658743797E-01
              0.192823756769458E+01
              0.813465717279804E+00
             -0.355003092436673E+00
             -0.207674176732027E+01
              0.165446463239459E+01
             -0.103154807735732E+01
              0.413994333265677E-01
             -0.118968301411617E+00
              0.320914939238358E+01
             -0.572562005111815E+00
             -0.258813126432276E+01
              0.755395476803281E+00
             -0.400569319027531E+01
              0.322884740075953E+00
             -0.949522019741813E+00
             -0.427211597851453E+00
             -0.650281176690346E+00
             -0.146670090129563E+01
              0.911827024952324E+00
             -0.887220823234825E+00
             -0.332124854852959E+00
             -0.186699065095836E+01
             -0.113076429133969E+00
             -0.132385298919766E+01
             -0.189304552292760E+01
             -0.266034429104787E+01
              0.205922810683751E+00
             -0.894312550569301E+00
              0.211634769336017E+00
             -0.322992516322994E+00
             -0.203760453400439E+01
             -0.157624635932782E+01
             -0.139173432798638E+01
             -0.141986437704967E+01
              0.128855059221303E+01
              0.170826362017499E+00
             -0.121442509101877E+01
             -0.597541036592808E+00
             -0.670459643363265E+00
              0.100769738054862E+01
             -0.772795160843281E+00
             -0.139698099000555E+00
             -0.747001473099285E+00
             -0.981502351272647E+00
             -0.101040922018863E+01
              0.100777296233419E+01
             -0.312564920508097E+00
             -0.224738192662050E+01
              0.192500793141494E+01
              0.113132355995332E+01
              0.862732857801145E-01
             -0.198178962107971E+01
             -0.184351696782144E+01
              0.151974625073787E+00
              0.231703375183319E-01
             -0.836275358781073E+00
             -0.110096721968048E+01
              0.767712175062135E+00
             -0.136970362225244E+00
              0.671582107786083E+00
              0.116829853408081E+01
              0.872642090635907E+00
              0.625825818961070E+00
              0.543140263824173E+00
             -0.550130775185973E+00
             -0.368650288190217E+00
             -0.451492343335245E+00
             -0.937573343345049E+00
             -0.117167816750259E+01
             -0.150772154756540E+01
             -0.893836921879614E+00
             -0.302963271732884E+00
             -0.184692314721566E+01
             -0.403087111052141E+00
              0.854401819991711E+00
             -0.204608720971151E+01
              0.880838861012936E+00
              0.694892112294283E+00
             -0.176390669068586E+01
             -0.138038233088588E+01
             -0.548697808538938E+00
              0.327123500693897E+00
             -0.101514082115423E+01
              0.185496059516871E+01
              0.164035818213217E+01
             -0.189840075583174E+01
              0.105583916051057E+01
              0.890529918028918E+00
              0.242742474832227E+00
              0.476922815151253E+00
             -0.104648838633091E+01
             -0.387649805112325E+00
              0.152524176045750E+00
              0.497137101750006E+00
              0.103184524568265E+01
             -0.133708813892263E+01
             -0.260456650648459E+00
              0.409653097203929E+00
              0.194665454615008E+00
             -0.832957314056724E+00
              0.456022073193191E+00
             -0.624464715293986E+00
             -0.431660674887427E+00
             -0.100430891886489E-01
             -0.152229872267849E+01
             -0.374698192338285E-02
             -0.253832415556507E+00
             -0.376036406916688E+00
              0.353509047604330E+00
             -0.130815696148134E+01
              0.142439717698070E+01
             -0.536340862821665E+00
             -0.329899748026813E+01
             -0.212898277695503E+01
              0.866297318597177E+00
             -0.100927754210993E+01
             -0.533411357784557E+00
             -0.598908387990881E+00
             -0.466387683516191E+00
             -0.255353050857420E+01
             -0.455474146206729E-01
             -0.152906630327890E+01
             -0.818643789477829E+00
              0.511800236222754E+00
              0.193046407004417E+01
              0.100790659430920E+00
              0.673285660096359E-01
              0.147953177044936E+01
             -0.140070737118236E+01
              0.710244463472728E+00
              0.155842648204139E+00
             -0.127176362635954E+01
             -0.720407022498613E+00
              0.490746739994551E+00
              0.710558276597961E-01
              0.402138424148196E+00
              0.347768871174444E+00
             -0.583889954620306E+00
             -0.784117359322465E+00
             -0.123048664422927E+01
              0.122632795372899E+01
             -0.167220102656280E+01
             -0.123435609180330E+01
              0.359371063618067E+00
             -0.209164207510345E+01
              0.556475033234250E+00
              0.146019050795281E+01
             -0.277217760651496E+00
              0.465529797588200E+00
             -0.802723494564530E+00
             -0.544060053381579E+00
              0.268945657754129E+00
              0.895014163102822E+00
             -0.909324561139330E+00
              0.567080807313530E+00
             -0.349986419142219E+00
              0.140203739297819E+00
              0.476861244856549E+00
              0.257878317774063E+00
             -0.285391824325877E+00
             -0.197289518863339E-01
              0.325904421744291E+00
              0.685484417384055E+00
             -0.174210190459194E+01
             -0.368578778056481E-01
              0.132349659074415E+01
             -0.219924158465667E+01
              0.816480575038999E+00
             -0.282127814312791E+01
             -0.272458265698435E+00
             -0.356156782205143E+00
             -0.707852638628417E-01
             -0.298625997333257E+00
             -0.688348130360646E+00
             -0.241582232381040E+00
              0.337336235820929E+00
             -0.607751995885492E+00
              0.272934067099691E+00
              0.222688861401419E+01
             -0.142537114940272E+01
             -0.632209092827199E+00
              0.101450022437059E+01
              0.512119132742605E+00
              0.103103329899955E+01
              0.472313565529103E+00
              0.448725785125480E+00
             -0.356880530307785E+00
             -0.122023079009782E+01
             -0.109140827558952E+01
             -0.823292669590777E+00
              0.127106223852852E+00
             -0.103556271196769E+01
             -0.287842927430246E+00
              0.154185296472207E+00
              0.604069003836660E+00
             -0.170986759224399E+00
              0.144435408143178E+01
             -0.158684296516831E+01
             -0.370107023970672E-01
             -0.191748651995749E+00
              0.775586186840668E+00
             -0.107147742414553E+01
             -0.691751049010723E+00
              0.368671817456389E+00
              0.114516812412632E+01
              0.184367284279471E+01
              0.762124965542268E+00
              0.112915372188224E+01
             -0.622878395803930E+00
              0.154873154349252E+01
              0.156504749678200E+01
             -0.494124615284015E-01
              0.783560921197075E+00
              0.941803382594292E+00
             -0.515889868190459E+00
              0.317899286958442E+00
              0.162036399148580E+01
             -0.532711413841469E+00
             -0.176927032525047E+00
             -0.154910937197215E+01
              0.564027914153606E+00
             -0.345117531562559E+00
              0.527784097417738E+00
              0.553189853948268E-01
             -0.976084871571009E+00
              0.112768080967019E+01
              0.974229019453423E+00
             -0.758339118657771E+00
              0.414026719118690E+00
             -0.145417202679321E+01
             -0.134527249692861E+01
              0.617999810006465E+00
             -0.169118086681033E+01
             -0.846239303830733E+00
              0.470602416330212E-01
              0.211515004932676E+01
             -0.554046549806179E+00
             -0.259373783098848E+00
             -0.485472805114694E+00
              0.276921948167661E+01
              0.464660728844994E+00
             -0.104393345520821E+01
              0.173338597610512E+01
              0.153424117660684E+01
              0.806500823911517E+00
              0.195861479170992E+01
              0.212637862115734E+01
             -0.105985719799919E+00
             -0.726088850769377E+00
             -0.630999014713144E+00
              0.669054193155669E+00
              0.956971332873338E+00
             -0.169879744374763E+00
             -0.586562203764837E+00
             -0.141465157315233E+01
             -0.536651199363315E+00
             -0.114575706113992E+01
              0.827453999286087E+00
              0.420279694757948E+00
              0.147865279749964E+01
              0.314516810182904E+00
             -0.577246861770128E+00
             -0.220711297179553E+00
              0.990467126411822E+00
              0.262260188508794E+00
              0.149638013114046E+01
              0.137182885464524E+01
             -0.224846563499235E+00
             -0.205063793239581E+00
             -0.249167049223840E+01
              0.122464792064223E+01
             -0.227616689020600E-01
              0.139888641405275E+01
             -0.619012811568957E+00
             -0.161981595864422E+01
              0.470306680733668E+00
              0.178464417261492E+01
             -0.623075025817626E+00
              0.164035052196914E+01
             -0.176734666601748E+01
             -0.640272418818031E+00
             -0.210287434308317E+01
              0.424983477877070E+00
              0.141977429815110E+00
              0.192622656583464E+00
             -0.152396862239840E+01
              0.227071372629131E+01
              0.131745401958018E+01
              0.148995823290390E+00
             -0.131042035618589E+01
              0.498386947593721E+00
             -0.471815115736557E+00
             -0.350322040857623E+00
             -0.654553325706404E+00
              0.423046776420335E+00
             -0.392580414107143E+00
             -0.451131221905029E+00
              0.570224883199915E+00
              0.579637689401753E+00
             -0.221733485859904E+01
              0.483967987237851E+00
              0.162826127812665E+01
              0.104783175999095E+01
             -0.337211828343035E+00
             -0.352895985074524E-01
             -0.907564825868589E+00
              0.138698065703747E+01
              0.239897590005739E+00
             -0.757790970821652E-01
             -0.138396540563875E+00
              0.269031796882790E+01
             -0.161584050714803E+00
              0.589961418748057E+00
              0.182437608060379E+01
              0.238542114728774E+01
              0.147010155759264E+01
              0.977548682779620E+00
             -0.155732863426770E+01
             -0.113645008745300E+01
              0.897314371224430E+00
              0.935393128016448E-01
              0.759562805588708E+00
              0.315689680085885E+00
              0.158538484496895E+01
             -0.196028488200060E+01
             -0.121217453605025E+01
             -0.268530972427531E+00
             -0.214634716171235E+01
              0.470689475894394E+00
              0.112113916032929E+01
              0.535590509693691E-01
             -0.507284077025936E+00
              0.513208247408437E+00
              0.332930352998996E+01
              0.772727073436176E+00
              0.439245363061715E+00
             -0.117933173729706E+01
             -0.145137080513782E+01
             -0.331485245941869E+00
              0.694377244247724E+00
             -0.146976013483275E+00
              0.622979093793663E+00
              0.862827636690355E+00
             -0.153468631195332E+01
              0.668308928574080E+00
              0.863014237673159E+00
              0.140715658183232E+01
             -0.247844986205926E+00
              0.116065478597786E+00
             -0.170676337380527E+00
             -0.110390135979285E+01
             -0.180262833037993E+01
              0.188978285807329E+01
             -0.254029053014839E+00
             -0.132367096748233E+01
              0.187418871614466E+00
             -0.739866245405417E+00
              0.210525126450682E+01
             -0.547524448210620E+00
             -0.925637635046594E+00
              0.895534380799315E+00
             -0.381053702736433E+00
              0.114805853432219E+01
              0.319739283589193E-01
              0.229421834331729E+01
              0.128069785851546E+01
              0.273205257337041E+00
             -0.966960978696231E+00
              0.703271946765438E+00
             -0.134003016354832E+01
             -0.118536040644435E+00
              0.158401870857372E+01
             -0.627088995322315E+00
             -0.107295626817559E+01
             -0.555082252586439E+00
              0.126988715624396E+01
              0.294857289993389E+00
             -0.200973691582891E+01
              0.844088966116106E+00
              0.177895630283532E+00
              0.267715280999082E+00
             -0.118908570944221E+01
              0.237834427417388E+00
              0.849240125396052E+00
              0.114550725869824E+01
              0.158865061388871E+01
              0.854918505705074E+00
              0.195336105744844E+00
             -0.134631166348020E+01
             -0.102899910543026E+01
             -0.161184362181482E+01
             -0.339186036270268E+00
              0.838143640923411E+00
             -0.124041516965940E-01
              0.127764347639092E+01
             -0.788748302373563E+00
              0.428249282368670E+00
             -0.547095018810371E+00
             -0.657348140133898E+00
              0.143765819905896E+01
              0.128330104151611E+00
              0.152710344654924E+01
              0.134562541705149E+00
              0.496475703645979E+00
             -0.386501586286506E+00
              0.148276224092585E+01
             -0.383289612879155E+00
             -0.135581228110890E-01
             -0.191888688459796E+01
             -0.180098385769035E+00
              0.171201293425401E+01
              0.159929818944706E+01
              0.605482403202206E+00
             -0.381956567642518E+00
              0.110367562833177E+00
             -0.564092677222555E+00
             -0.447829577039297E+00
              0.219330713345542E+01
              0.169145278401832E+00
             -0.708580108722474E+00
             -0.262801705245333E+01
             -0.108018351969069E+01
             -0.925300209892689E+00
             -0.152043693140827E+01
             -0.146508402754250E+01
             -0.175015106566308E+01
             -0.110580752664730E+01
             -0.693089004092908E+00
             -0.117099152959104E+01
              0.108630474224264E+01
             -0.446015602312849E+00
             -0.212158064437747E+01
              0.102659912879927E+01
             -0.823501035897283E+00
             -0.194928406338394E+01
              0.248227987060810E+01
             -0.625250663923199E+00
              0.374310640984773E+00
              0.936916080316546E+00
              0.306914003950778E+00
              0.630582332387918E+00
              0.183069828690319E-01
              0.292896161933656E-01
             -0.307135943653120E+00
             -0.180279957582408E+01
              0.266749114399393E+00
             -0.296483335185879E+01
              0.175494372667009E+01
             -0.992812832200822E+00
             -0.448004760133052E+00
             -0.500694333871277E+00
              0.530473977664983E+00
             -0.398220126212895E+00
              0.707864709938215E+00
             -0.143783522339665E+01
              0.899489388490511E+00
              0.104284109275547E+01
              0.240907755478212E+00
              0.219940078977928E+00
              0.528451744507607E+00
              0.240896551893935E+00
              0.745709623382259E+00
             -0.116186297977742E+00
             -0.180337483395564E+01
              0.239896997318514E+00
             -0.842697053351070E+00
             -0.729126683363086E-01
              0.135524754310075E+01
             -0.196772714622096E+01
              0.472828122753945E-01
              0.763824565385853E-01
              0.227631399103078E+00
              0.756911359809113E+00
             -0.315030829492932E+00
              0.207004227717227E+01
              0.922617862984357E+00
             -0.363998276641819E+00
             -0.230826206316769E+00
              0.151340882256672E+00
              0.193508688387759E+01
             -0.121139633995586E+01
             -0.248876452847924E+01
              0.709416711027093E+00
             -0.191819664005754E+00
             -0.375737694105568E+00
              0.473681794842018E+00
              0.186853970036113E+01
              0.103340151030621E+01
             -0.420432693713882E+00
             -0.132654314427502E+01
             -0.305726504850555E+00
              0.680100448273650E+00
             -0.438275600644607E+00
             -0.186265975865821E+01
             -0.221842461011700E+00
             -0.239603833334557E+01
             -0.126188970929270E+01
              0.213358552086563E+01
             -0.127957685033900E+01
             -0.175906525022466E+01
             -0.131111162513255E+01
             -0.977608512688677E+00
              0.827796492440161E+00
              0.208969650783056E+01
             -0.227302434477441E+00
              0.658929478892871E+00
             -0.489502775958525E+00
             -0.167117471720927E+01
              0.127808588650013E+01
             -0.119162693052973E+01
              0.627824812754648E+00
              0.711950194546666E+00
             -0.384541157973579E+00
              0.934846698876253E+00
              0.958466087823223E+00
              0.295330588330991E+01
             -0.260815891723318E+00
             -0.137315200309781E+01
             -0.163847871673482E+01
             -0.464233863402595E+00
             -0.101191488291225E+01
              0.231037719566623E+01
             -0.111417768457355E+01
              0.245993822723908E+00
              0.641371237773134E-01
             -0.486807271401742E+00
             -0.210676094790098E+01
             -0.163769871433176E+00
              0.246881300729828E+01
              0.526488583059349E+00
              0.187889285790881E+00
             -0.143056091084480E+01
             -0.133365076266938E+01
             -0.431517505591307E+00
              0.111596756827435E+01
             -0.656052033367897E+00
              0.248501460966317E+01
             -0.115122412168131E+01
              0.469359856785934E+00
             -0.348140727068888E+00
             -0.151441174240137E+01
              0.170492417948788E+00
             -0.139232571166778E+01
             -0.181614399547200E+01
              0.263197341597085E+00
              0.363401997802772E-01
              0.120426832968125E+01
              0.662579887787435E+00
             -0.863516207332256E+00
              0.552935978708636E+00
             -0.216290883850739E+01
             -0.117272300119454E+01
              0.229819295312909E+01
              0.994114502523775E-01
             -0.134952043529204E+00
             -0.617091202230375E+00
             -0.850569436735427E-02
             -0.286227022951421E+00
              0.224975905469817E+01
              0.101146491477972E+01
             -0.217163250033272E+00
             -0.109565877271010E-01
             -0.944419803773991E+00
             -0.327104536377208E+00
             -0.153707599649217E+01
              0.127426045930954E+01
              0.159938843980917E+00
              0.196353415726065E+00
              0.448603132698018E+00
             -0.334720241617473E+00
             -0.556225368672506E+00
              0.188537145965221E+00
             -0.274162765050053E+01
             -0.268366953375217E+00
             -0.225469798710067E+00
             -0.154235340053628E+00
              0.122233609328890E+01
              0.158686092646086E+01
              0.432578950800753E+00
             -0.229696406319390E+01
              0.157947099988626E+01
             -0.599433744325280E+00
             -0.917254033039767E+00
             -0.215954221620834E+01
             -0.681809731246862E+00
              0.153590681815393E+01
              0.820777475648839E+00
              0.408482789237020E+00
              0.864998367638027E+00
             -0.137161985032614E+01
             -0.120417266727917E+01
              0.154426229165011E+01
              0.102937908358905E+01
              0.117016165294121E+01
              0.184771980014574E+00
              0.260060259334603E+00
              0.130232059844947E+01
              0.244797337848963E+01
             -0.451738992474217E+00
              0.995640348970845E+00
             -0.687141704916495E+00
             -0.108196936197946E+01
             -0.854664530896516E+00
             -0.812886210260322E+00
             -0.342746403534290E+00
             -0.118209746377746E+01
             -0.484982468251216E+00
             -0.319616485418739E+01
              0.770041220379208E+00
              0.702128682261497E+00
             -0.728175827371773E-01
             -0.921140764137117E+00
             -0.464810427736268E+00
             -0.138741434353997E+01
              0.148854906722343E+00
              0.195816859390748E+01
             -0.450466931680957E+00
             -0.466491008350058E+00
              0.469640494717515E+00
             -0.124135685141297E+01
              0.213220613174974E+01
              0.394537987863083E+00
              0.161578890210162E+00
              0.129551918366600E+01
             -0.139010742187159E+00
              0.145834136468585E+01
              0.488520733321933E+00
             -0.588687487658568E-01
              0.339167089697528E+00
             -0.237534355557138E+00
              0.167555026910999E+01
              0.175960109357463E+00
              0.516569745607494E+00
             -0.214196113999321E+00
              0.255731176025907E+00
             -0.232322750147604E+01
             -0.886476086816183E+00
             -0.121457322314529E+01
              0.126108643317668E+01
             -0.874301447859276E+00
             -0.138605876338542E+01
              0.147916148403719E+01
             -0.347580113257855E+00
              0.103176588133666E+01
             -0.221307507190562E+01
              0.460619329439123E+00
              0.105311683069407E+00
              0.152908228246783E+00
             -0.325476128543201E+00
             -0.159583411737547E+00
              0.123205425662453E+01
              0.687827829668501E-01
             -0.129446629095725E+01
             -0.529736951344181E+00
              0.474444272071173E+00
             -0.285763879763537E+01
             -0.216555516192735E+01
              0.239520293763418E-01
              0.393562167117801E+00
             -0.124611899220901E+01
              0.183171577170622E-01
              0.255066012458008E+01
              0.746528436147932E+00
             -0.133289601999305E+01
              0.192478997310361E+00
             -0.258541806604104E+00
              0.317007996215624E+00
             -0.875278299639086E+00
              0.557413081192760E+00
              0.580927768271568E+00
             -0.220654676567134E+00
              0.278127847603860E+01
             -0.105922489145564E+00
             -0.768937657291861E+00
              0.767014652357462E+00
              0.105625559903338E+01
             -0.803867425809248E+00
             -0.212077968228956E-01
              0.241778169362669E+01
             -0.334127739586680E-01
              0.127793364165399E+01
              0.409267441918149E+00
             -0.181530119539515E+00
             -0.378146559359751E+00
              0.119385999817619E+01
             -0.147134721384388E+01
             -0.560191580015772E-01
             -0.490947090596750E+00
             -0.100289780902044E+01
              0.271712979231014E+00
              0.600781379058853E+00
             -0.291415732257274E-01
             -0.514413944068757E-01
             -0.101908641969305E+01
              0.382127033638123E+00
             -0.301285303484793E-01
             -0.544862368590018E+00
             -0.505243335798518E+00
              0.431560089032461E+00
             -0.152030548192155E-01
             -0.955752491116264E+00
             -0.264805315002622E+01
              0.151262861330299E+00
              0.385934654895688E+00
             -0.119179555042990E+01
             -0.614863911387618E+00
              0.203081557217555E+01
              0.306824424062818E+00
              0.109420520499123E+01
              0.265026778214813E+00
              0.981152344648662E+00
              0.541600255632062E-01
             -0.990327070915960E+00
             -0.277375685812149E+00
              0.135306360251881E+00
              0.765809894983381E+00
              0.186264102339952E+01
              0.121435641647816E+01
              0.708435704834560E-01
              0.271147536257891E+00
              0.149603068556791E+01
              0.696575664434970E+00
             -0.172888229948481E+01
             -0.683493513374723E+00
              0.286957691222366E+00
              0.250411852083364E+00
              0.631440499984761E+00
             -0.127058967009030E+01
              0.124599406208179E+00
              0.101390822611868E+01
              0.120865670355421E+01
             -0.104961549399979E+01
              0.619972027403257E-01
             -0.698934963378690E-01
             -0.522315769146043E+00
             -0.634655997972843E+00
             -0.294397931253308E+00
             -0.288231011308717E+00
              0.272926697449130E+00
              0.103667593948627E+01
             -0.803845625622651E+00
              0.200200623919334E+01
              0.837425477255204E+00
              0.647432462630274E+00
              0.916932851131191E+00
              0.623503984765493E+00
              0.854951487623074E+00
              0.137413695113871E+01
             -0.117236309965151E+01
              0.155381802847891E+01
             -0.280892046416147E+01
              0.782156621680303E+00
             -0.260172257561977E+01
              0.198649847742499E+01
              0.193999358824052E+01
             -0.206928022443776E+00
             -0.116232965502407E+01
             -0.105751608657689E+01
             -0.133743443588945E+01
             -0.162221205384768E+01
              0.134521220936579E+01
              0.106606916473824E+01
              0.602836917497611E+00
              0.644400071963236E+00
              0.109437889569095E+01
             -0.100859799228535E+01
             -0.356850930427768E+00
              0.131919008658049E+01
             -0.297782288238732E+00
              0.122033671264647E+01
              0.191609796660902E+01
             -0.816139505005937E-01
             -0.186428681487346E+01
              0.127602183333607E+00
              0.485144197770578E-01
             -0.261155304315036E+00
              0.821116268212227E-01
             -0.160108144989632E+01
             -0.220363949598618E+00
              0.338297297166388E+00
              0.338914404947387E+00
              0.123787213139198E+01
             -0.103822965381884E+01
              0.129218464270946E+01
             -0.951488958948313E+00
              0.670296537989501E+00
              0.108023413928146E+01
 
 BEEF-vdW xc energy contributions
           1 :   -17.4790996199451     
           2 :    14.4939531917047     
           3 :   -10.1737787497279     
           4 :    6.09545489223910     
           5 :   -3.00071892438330     
           6 :    1.02294770533020     
           7 :   6.714575756838315E-003
           8 :  -0.401576398959495     
           9 :   0.495220450924052     
          10 :  -0.542669724713846     
          11 :   0.642486966456723     
          12 :  -0.753397754390896     
          13 :   0.785152710861006     
          14 :  -0.692375367836661     
          15 :   0.496902616605269     
          16 :  -0.264742066901412     
          17 :   6.660512441079547E-002
          18 :   5.066227420663338E-002
          19 :  -8.288856279822454E-002
          20 :   6.191637879417300E-002
          21 :  -3.268461379988352E-002
          22 :   2.336681134640983E-002
          23 :  -3.515288263335847E-002
          24 :   4.886410854926027E-002
          25 :  -4.228693543394613E-002
          26 :   5.924921711777387E-003
          27 :   4.724317996136307E-002
          28 :  -9.282354602967757E-002
          29 :   0.113172675125842     
          30 :  -0.107835575986353     
          31 :   -2.29759232317648     
          32 :   -1.43995059980418     

     Writing output data file ./pwscf.save/
 
     init_run     :     79.24s CPU     82.34s WALL (       1 calls)
     electrons    :    684.33s CPU    745.53s WALL (       1 calls)
     forces       :     36.59s CPU     39.39s WALL (       1 calls)

     Called by init_run:
     wfcinit      :      2.88s CPU      2.97s WALL (       1 calls)
     potinit      :     60.65s CPU     62.73s WALL (       1 calls)
     hinit0       :     13.42s CPU     13.56s WALL (       1 calls)

     Called by electrons:
     c_bands      :    137.20s CPU    138.51s WALL (      16 calls)
     sum_band     :     60.72s CPU     72.31s WALL (      16 calls)
     v_of_rho     :    355.17s CPU    388.18s WALL (      17 calls)
     newd         :     26.90s CPU     38.78s WALL (      17 calls)
     PAW_pot      :      2.32s CPU      2.32s WALL (      17 calls)
     mix_rho      :    154.17s CPU    160.22s WALL (      16 calls)
     vdW_kernel   :     33.86s CPU     33.86s WALL (       1 calls)

     Called by c_bands:
     init_us_2    :      2.11s CPU      2.14s WALL (      33 calls)
     regterg      :    133.17s CPU    134.48s WALL (      16 calls)

     Called by *egterg:
     rdiaghg      :      0.03s CPU      0.04s WALL (     142 calls)
     h_psi        :    117.58s CPU    117.62s WALL (     143 calls)
     s_psi        :      3.53s CPU      3.53s WALL (     143 calls)
     g_psi        :      0.42s CPU      0.42s WALL (     126 calls)

     Called by h_psi:
     h_psi:calbec :      3.25s CPU      3.25s WALL (     143 calls)
     vloc_psi     :    110.15s CPU    110.16s WALL (     143 calls)
     add_vuspsi   :      3.55s CPU      3.55s WALL (     143 calls)

     General routines
     calbec       :      3.89s CPU      3.89s WALL (     163 calls)
     fft          :    341.43s CPU    341.46s WALL (    2932 calls)
     ffts         :     69.50s CPU     69.51s WALL (     613 calls)
     fftw         :    106.08s CPU    106.08s WALL (     930 calls)
 
     Parallel routines
 
     PWSCF        :  23m 6.30s CPU  25m17.91s WALL

 
   This run was terminated on:  23:27: 5   3Jan2023            

=------------------------------------------------------------------------------=
   JOB DONE.
=------------------------------------------------------------------------------=
