
     Program PWSCF v.6.7MaX starts on 20Dec2022 at 16:15:53 

     This program is part of the open-source Quantum ESPRESSO suite
     for quantum simulation of materials; please cite
         "P. Giannozzi et al., J. Phys.:Condens. Matter 21 395502 (2009);
         "P. Giannozzi et al., J. Phys.:Condens. Matter 29 465901 (2017);
          URL http://www.quantum-espresso.org", 
     in publications or presentations arising from this work. More details at
     http://www.quantum-espresso.org/quote

     Parallel version (MPI), running on     1 processors

     MPI processes distributed on     1 nodes
     Reading input from ch2ch3-gas-ensemble.in
Warning: card &CELL ignored
Warning: card / ignored

     Current dimensions of program PWSCF are:
     Max number of different atomic species (ntypx) = 10
     Max number of k-points (npk) =  40000
     Max angular momentum in pseudopotentials (lmaxx) =  3
     file C.pbe-n-kjpaw_psl.1.0.0.UPF: wavefunction(s)  2S 2P renormalized
     file H.pbe-kjpaw_psl.1.0.0.UPF: wavefunction(s)  1S renormalized

     **************************************************************************
     Initializing libbeef V0.1.2 with the BEEF-vdW functional.
     Citation: Wellendorff et al., PRB 85, 235149 (2012).
     **************************************************************************


     IMPORTANT: XC functional enforced from input :
     Exchange-correlation= BEEF-VDW
                           (   1   4  43  14   2   0   0)
     Any further DFT definition will be discarded
     Please, verify this is what you really want


     gamma-point specific algorithms are used

     Subspace diagonalization in iterative solution of the eigenvalue problem:
     a serial algorithm will be used

 
     G-vector sticks info
     --------------------
     sticks:   dense  smooth     PW     G-vecs:    dense   smooth      PW
     Sum       35767   35767   8933              4847457  4847457  605785
 


     bravais-lattice index     =            0
     lattice parameter (alat)  =      43.5690  a.u.
     unit-cell volume          =   77211.2174 (a.u.)^3
     number of atoms/cell      =            7
     number of atomic types    =            2
     number of electrons       =        13.00
     number of Kohn-Sham states=           11
     kinetic-energy cutoff     =      60.0000  Ry
     charge density cutoff     =     240.0000  Ry
     scf convergence threshold =      1.0E-06
     mixing beta               =       0.7000
     number of iterations used =            8  local-TF  mixing
     Exchange-correlation= BEEF-VDW
                           (   1   4  43  14   2   0   0)

     celldm(1)=  43.568954  celldm(2)=   0.000000  celldm(3)=   0.000000
     celldm(4)=   0.000000  celldm(5)=   0.000000  celldm(6)=   0.000000

     crystal axes: (cart. coord. in units of alat)
               a(1) = (   1.000000   0.000000   0.000000 )  
               a(2) = (   0.000000   0.986886   0.000000 )  
               a(3) = (   0.000000   0.000000   0.945981 )  

     reciprocal axes: (cart. coord. in units 2 pi/alat)
               b(1) = (  1.000000  0.000000  0.000000 )  
               b(2) = (  0.000000  1.013289  0.000000 )  
               b(3) = (  0.000000  0.000000  1.057104 )  


     PseudoPot. # 1 for C  read from file:
     /users/bkreitz1/quantum-espresso/potentials/C.pbe-n-kjpaw_psl.1.0.0.UPF
     MD5 check sum: a169b0ebad56f5ec0d79c4633f80bf22
     Pseudo is Projector augmented-wave + core cor, Zval =  4.0
     Generated using 'atomic' code by A. Dal Corso  v.6.7MaX
     Shape of augmentation charge: PSQ
     Using radial grid of 1073 points,  4 beta functions with: 
                l(1) =   0
                l(2) =   0
                l(3) =   1
                l(4) =   1
     Q(r) pseudized with 0 coefficients 


     PseudoPot. # 2 for H  read from file:
     /users/bkreitz1/quantum-espresso/potentials/H.pbe-kjpaw_psl.1.0.0.UPF
     MD5 check sum: ae98473e6dc62675f0d0baffdab24f65
     Pseudo is Projector augmented-wave, Zval =  1.0
     Generated using 'atomic' code by A. Dal Corso  v.6.7MaX
     Shape of augmentation charge: PSQ
     Using radial grid of  929 points,  2 beta functions with: 
                l(1) =   0
                l(2) =   0
     Q(r) pseudized with 0 coefficients 


     atomic species   valence    mass     pseudopotential
        C              4.00    12.01100     C ( 1.00)
        H              1.00     1.00800     H ( 1.00)

     No symmetry found



   Cartesian axes

     site n.     atom                  positions (alat units)
         1           C   tau(   1) = (   0.5277808   0.5081362   0.4439796  )
         2           C   tau(   2) = (   0.4752804   0.4804121   0.4676096  )
         3           H   tau(   3) = (   0.5670211   0.4836410   0.4365174  )
         4           H   tau(   4) = (   0.5294665   0.5543726   0.4365015  )
         5           H   tau(   5) = (   0.4749025   0.4805439   0.5156101  )
         6           H   tau(   6) = (   0.4717740   0.4347907   0.4550997  )
         7           H   tau(   7) = (   0.4355542   0.5028905   0.4551015  )

     number of k points=     1  Gaussian smearing, width (Ry)=  0.0050
                       cart. coord. in units 2pi/alat
        k(    1) = (   0.0000000   0.0000000   0.0000000), wk =   2.0000000

     Dense  grid:  2423729 G-vectors     FFT dimensions: ( 216, 216, 216)

     Estimated max dynamical RAM per process >       3.94 GB

     Initial potential from superposition of free atoms

     starting charge   12.99987, renormalised to   13.00000

     negative rho (up, down):  7.500E-03 0.000E+00


     %%%%%%%%%%%%%%%%%%%%%%%%%%%%%%%%%%%%%%%%%%%%%%%%%%%%%%%%%%%%%%%%%%%%%%%%
     %                                                                      %
     % You are using vdW-DF, which was implemented by the Thonhauser group. %
     % Please cite the following two papers that made this development      %
     % possible and the two reviews that describe the various versions:     %
     %                                                                      %
     %   T. Thonhauser et al., PRL 115, 136402 (2015).                      %
     %   T. Thonhauser et al., PRB 76, 125112 (2007).                       %
     %   K. Berland et al., Rep. Prog. Phys. 78, 066501 (2015).             %
     %   D.C. Langreth et al., J. Phys.: Condens. Matter 21, 084203 (2009). %
     %                                                                      %
     %                                                                      %
     % If you are calculating the stress with vdW-DF, please also cite:     %
     %                                                                      %
     %   R. Sabatini et al., J. Phys.: Condens. Matter 24, 424209 (2012).   %
     %                                                                      %
     %%%%%%%%%%%%%%%%%%%%%%%%%%%%%%%%%%%%%%%%%%%%%%%%%%%%%%%%%%%%%%%%%%%%%%%%


     Starting wfcs are   13 randomized atomic wfcs
     Checking if some PAW data can be deallocated... 

     total cpu time spent up to now is       70.6 secs

     Self-consistent Calculation

     iteration #  1     ecut=    60.00 Ry     beta= 0.70
     Davidson diagonalization with overlap
     ethr =  1.00E-02,  avg # of iterations =  5.0

     negative rho (up, down):  6.027E-03 0.000E+00

     total cpu time spent up to now is      108.7 secs

     total energy              =     -44.02259150 Ry
     estimated scf accuracy    <       0.82577536 Ry

     iteration #  2     ecut=    60.00 Ry     beta= 0.70
     Davidson diagonalization with overlap
     ethr =  6.35E-03,  avg # of iterations =  1.0

     negative rho (up, down):  3.685E-03 0.000E+00

     total cpu time spent up to now is      144.0 secs

     total energy              =     -43.95045669 Ry
     estimated scf accuracy    <       0.20772775 Ry

     iteration #  3     ecut=    60.00 Ry     beta= 0.70
     Davidson diagonalization with overlap
     ethr =  1.60E-03,  avg # of iterations =  2.0

     negative rho (up, down):  1.308E-03 0.000E+00

     total cpu time spent up to now is      180.5 secs

     total energy              =     -43.96776517 Ry
     estimated scf accuracy    <       0.03124611 Ry

     iteration #  4     ecut=    60.00 Ry     beta= 0.70
     Davidson diagonalization with overlap
     ethr =  2.40E-04,  avg # of iterations =  7.0

     negative rho (up, down):  2.387E-02 0.000E+00

     total cpu time spent up to now is      220.6 secs

     total energy              =     -43.96383125 Ry
     estimated scf accuracy    <       0.01560441 Ry

     iteration #  5     ecut=    60.00 Ry     beta= 0.70
     Davidson diagonalization with overlap
     ethr =  1.20E-04,  avg # of iterations =  5.0

     negative rho (up, down):  1.324E-01 0.000E+00

     total cpu time spent up to now is      259.3 secs

     total energy              =     -43.96471296 Ry
     estimated scf accuracy    <       0.00717844 Ry

     iteration #  6     ecut=    60.00 Ry     beta= 0.70
     Davidson diagonalization with overlap
     ethr =  5.52E-05,  avg # of iterations =  5.0

     negative rho (up, down):  1.213E-01 0.000E+00

     total cpu time spent up to now is      299.0 secs

     total energy              =     -43.96540872 Ry
     estimated scf accuracy    <       0.00445303 Ry

     iteration #  7     ecut=    60.00 Ry     beta= 0.70
     Davidson diagonalization with overlap
     ethr =  3.43E-05,  avg # of iterations =  2.0

     negative rho (up, down):  1.025E-01 0.000E+00

     total cpu time spent up to now is      335.8 secs

     total energy              =     -43.96385398 Ry
     estimated scf accuracy    <       0.00193746 Ry

     iteration #  8     ecut=    60.00 Ry     beta= 0.70
     Davidson diagonalization with overlap
     ethr =  1.49E-05,  avg # of iterations =  9.0

     negative rho (up, down):  9.501E-02 0.000E+00

     total cpu time spent up to now is      377.2 secs

     total energy              =     -43.96400486 Ry
     estimated scf accuracy    <       0.00246713 Ry

     iteration #  9     ecut=    60.00 Ry     beta= 0.70
     Davidson diagonalization with overlap
     ethr =  1.49E-05,  avg # of iterations =  1.0

     negative rho (up, down):  5.698E-02 0.000E+00

     total cpu time spent up to now is      413.3 secs

     total energy              =     -43.96290947 Ry
     estimated scf accuracy    <       0.00086049 Ry

     iteration # 10     ecut=    60.00 Ry     beta= 0.70
     Davidson diagonalization with overlap
     ethr =  6.62E-06,  avg # of iterations = 13.0

     negative rho (up, down):  4.416E-02 0.000E+00

     total cpu time spent up to now is      456.3 secs

     total energy              =     -43.96301657 Ry
     estimated scf accuracy    <       0.00125986 Ry

     iteration # 11     ecut=    60.00 Ry     beta= 0.70
     Davidson diagonalization with overlap
     ethr =  6.62E-06,  avg # of iterations =  2.0

     negative rho (up, down):  3.122E-02 0.000E+00

     total cpu time spent up to now is      493.0 secs

     total energy              =     -43.96300486 Ry
     estimated scf accuracy    <       0.00020362 Ry

     iteration # 12     ecut=    60.00 Ry     beta= 0.70
     Davidson diagonalization with overlap
     ethr =  1.57E-06,  avg # of iterations =  7.0

     negative rho (up, down):  2.267E-02 0.000E+00

     total cpu time spent up to now is      532.7 secs

     total energy              =     -43.96305873 Ry
     estimated scf accuracy    <       0.00012510 Ry

     iteration # 13     ecut=    60.00 Ry     beta= 0.70
     Davidson diagonalization with overlap
     ethr =  9.62E-07,  avg # of iterations =  3.0

     negative rho (up, down):  1.912E-02 0.000E+00

     total cpu time spent up to now is      569.5 secs

     total energy              =     -43.96310092 Ry
     estimated scf accuracy    <       0.00007191 Ry

     iteration # 14     ecut=    60.00 Ry     beta= 0.70
     Davidson diagonalization with overlap
     ethr =  5.53E-07,  avg # of iterations =  7.0

     negative rho (up, down):  1.448E-02 0.000E+00

     total cpu time spent up to now is      606.8 secs

     total energy              =     -43.96311363 Ry
     estimated scf accuracy    <       0.00000844 Ry

     iteration # 15     ecut=    60.00 Ry     beta= 0.70
     Davidson diagonalization with overlap
     ethr =  6.49E-08,  avg # of iterations =  3.0

     negative rho (up, down):  1.414E-02 0.000E+00

     total cpu time spent up to now is      643.7 secs

     total energy              =     -43.96311858 Ry
     estimated scf accuracy    <       0.00000774 Ry

     iteration # 16     ecut=    60.00 Ry     beta= 0.70
     Davidson diagonalization with overlap
     ethr =  5.95E-08,  avg # of iterations =  1.0

     negative rho (up, down):  1.360E-02 0.000E+00

     total cpu time spent up to now is      678.7 secs

     total energy              =     -43.96311677 Ry
     estimated scf accuracy    <       0.00000271 Ry

     iteration # 17     ecut=    60.00 Ry     beta= 0.70
     Davidson diagonalization with overlap
     ethr =  2.08E-08,  avg # of iterations =  2.0

     negative rho (up, down):  1.336E-02 0.000E+00

     total cpu time spent up to now is      714.8 secs

     total energy              =     -43.96311793 Ry
     estimated scf accuracy    <       0.00000368 Ry

     iteration # 18     ecut=    60.00 Ry     beta= 0.70
     Davidson diagonalization with overlap
     ethr =  2.08E-08,  avg # of iterations =  2.0

     negative rho (up, down):  1.341E-02 0.000E+00

     total cpu time spent up to now is      741.8 secs

     End of self-consistent calculation

          k = 0.0000 0.0000 0.0000 (302893 PWs)   bands (ev):

   -19.0429 -15.1560 -11.3567 -10.2323  -9.9115  -8.9824  -3.9439  -0.9022
    -0.3885  -0.2690  -0.2059

     the Fermi energy is    -3.9439 ev

!    total energy              =     -43.96311735 Ry

     total all-electron energy =      -159.491290 Ry
     estimated scf accuracy    <       0.00000045 Ry
     smearing contrib. (-TS)   =      -0.00282095 Ry
     internal energy E=F+TS    =     -43.96029640 Ry

     The total energy is F=E-TS. E is the sum of the following terms:
     one-electron contribution =    -106.46115197 Ry
     hartree contribution      =      54.85165379 Ry
     xc contribution           =     -13.33398282 Ry
     ewald contribution        =      34.07116917 Ry
     one-center paw contrib.   =     -13.08798458 Ry

     convergence has been achieved in  18 iterations

     negative rho (up, down):  1.341E-02 0.000E+00

     Forces acting on atoms (cartesian axes, Ry/au):

     atom    1 type  1   force =    -0.00034496    0.00172073   -0.00314218
     atom    2 type  1   force =     0.00175466   -0.00144300    0.00451920
     atom    3 type  2   force =    -0.00019543   -0.00110194    0.00052772
     atom    4 type  2   force =    -0.00023994    0.00003863    0.00038245
     atom    5 type  2   force =     0.00080583   -0.00092652    0.00088531
     atom    6 type  2   force =     0.00019925   -0.00020847   -0.00028598
     atom    7 type  2   force =    -0.00197940    0.00192056   -0.00288653

     Total force =     0.007660     Total SCF correction =     0.000697

     negative rho (up, down):  1.341E-02 0.000E+00

     negative rho (up, down):  1.341E-02 0.000E+00

     negative rho (up, down):  1.341E-02 0.000E+00

     negative rho (up, down):  1.341E-02 0.000E+00

     negative rho (up, down):  1.341E-02 0.000E+00

     negative rho (up, down):  1.341E-02 0.000E+00

     negative rho (up, down):  1.341E-02 0.000E+00

     negative rho (up, down):  1.341E-02 0.000E+00

     negative rho (up, down):  1.341E-02 0.000E+00

     negative rho (up, down):  1.341E-02 0.000E+00

     negative rho (up, down):  1.341E-02 0.000E+00

     negative rho (up, down):  1.341E-02 0.000E+00

     negative rho (up, down):  1.341E-02 0.000E+00

     negative rho (up, down):  1.341E-02 0.000E+00

     negative rho (up, down):  1.341E-02 0.000E+00

     negative rho (up, down):  1.341E-02 0.000E+00

     negative rho (up, down):  1.341E-02 0.000E+00

     negative rho (up, down):  1.341E-02 0.000E+00

     negative rho (up, down):  1.341E-02 0.000E+00

     negative rho (up, down):  1.341E-02 0.000E+00

     negative rho (up, down):  1.341E-02 0.000E+00

     negative rho (up, down):  1.341E-02 0.000E+00

     negative rho (up, down):  1.341E-02 0.000E+00

     negative rho (up, down):  1.341E-02 0.000E+00

     negative rho (up, down):  1.341E-02 0.000E+00

     negative rho (up, down):  1.341E-02 0.000E+00

     negative rho (up, down):  1.341E-02 0.000E+00

     negative rho (up, down):  1.341E-02 0.000E+00

     negative rho (up, down):  1.341E-02 0.000E+00

     negative rho (up, down):  1.341E-02 0.000E+00

     negative rho (up, down):  1.341E-02 0.000E+00

     negative rho (up, down):  1.341E-02 0.000E+00

     negative rho (up, down):  1.341E-02 0.000E+00

     negative rho (up, down):  1.341E-02 0.000E+00
 BEEFens 2000 ensemble energies
             -0.102419273441269E+01
             -0.256019034020856E-01
             -0.194976039214938E+00
              0.689698335350265E+00
             -0.328806072171843E+00
             -0.228655372888782E+00
             -0.762784777536015E+00
             -0.153781862801832E+01
             -0.493038818719925E+00
             -0.541932013410782E+00
             -0.558559694983197E+00
              0.999407077323458E-01
              0.548432620746113E-01
             -0.100084927724183E+00
              0.598260364228458E-01
              0.736925778773872E+00
             -0.298225716080795E+00
             -0.111151577793608E+00
              0.397858375309189E+00
             -0.171823485895175E+01
              0.871747599039765E+00
             -0.280346850006289E+00
             -0.103320715550135E+00
             -0.129593746899992E+00
              0.743113687124088E-01
             -0.606753842782719E-01
              0.137439118417959E+01
             -0.386598451332396E+00
             -0.108840299240327E+00
             -0.886795959367466E+00
              0.102800508362344E+01
             -0.199680363565071E-01
             -0.653036435993108E+00
              0.248668601778274E+00
             -0.438152426436873E-01
              0.489683640473157E+00
              0.413082811011192E-01
             -0.332789154721445E-01
              0.639819495690406E+00
             -0.153145199661450E+01
              0.864330221752597E+00
              0.185172457526967E+00
             -0.223532170532531E+00
             -0.435293822019929E+00
              0.196016981110172E+00
             -0.290134545428542E+00
              0.813802599401954E+00
              0.537681224478512E+00
             -0.264253266006868E+00
             -0.502134015245488E+00
             -0.491415377270473E+00
             -0.595951631464589E+00
              0.396673582168687E+00
             -0.816920186793488E+00
              0.262779061450653E+00
              0.949284151944628E+00
              0.120033422186269E+01
              0.491328970352162E+00
              0.249976699071671E+00
              0.528389919075271E+00
              0.143592500625834E+01
              0.231258927495611E+00
             -0.856413618849853E+00
             -0.133560828739753E+00
             -0.480692937671276E+00
              0.966838181539432E+00
             -0.109636244838084E+01
             -0.917580548536755E+00
             -0.563462246556504E+00
             -0.342196836527920E+00
             -0.569901379103977E+00
              0.435230222997140E+00
              0.223094910248522E+00
              0.255379766470770E+00
             -0.610454071691859E+00
             -0.554172680009556E+00
             -0.930154362058590E+00
              0.467975175684852E+00
             -0.546686735377837E+00
              0.529219174397848E+00
             -0.144439267214318E+00
             -0.433762098000233E+00
             -0.745602539985179E+00
             -0.224606824231242E+00
             -0.275558871922325E+00
             -0.212173319416855E+00
              0.607830780622934E+00
              0.125117710385944E+01
             -0.716773942507476E+00
             -0.122666955295549E+01
             -0.279574685965315E+00
              0.168181631992014E+01
             -0.880188510585292E+00
              0.474488437886377E+00
             -0.181492921600856E+00
             -0.901413649115297E+00
              0.429464218380301E+00
              0.436420535839094E+00
             -0.232261395581415E+00
              0.424534113484255E+00
             -0.378253696916824E+00
             -0.988406587609059E+00
              0.161256925717663E+01
              0.697372449196775E+00
              0.292991433436502E+00
              0.184778831729053E+00
              0.369387643179521E+00
              0.125814019007523E+01
             -0.420272938969247E+00
              0.353478612515634E-01
             -0.214182097837602E+01
              0.265446273494581E+00
             -0.102242415197930E+01
              0.191182231670757E+00
              0.336632446567338E+00
             -0.587954582369266E+00
             -0.767125922005392E+00
              0.241792028871100E-01
             -0.492740033546585E+00
              0.718913998429581E+00
             -0.688385043145208E+00
             -0.157694519628018E+00
             -0.602818347256899E+00
             -0.425071560118484E-01
              0.102411304094448E+00
              0.391076449296836E+00
             -0.411286973243463E-02
             -0.891750933844371E-01
              0.106713667102309E+01
              0.143700177504897E+01
              0.782725140593791E+00
              0.959582115813612E+00
             -0.206946764899994E+00
              0.105674039288441E+00
              0.786064203912050E+00
              0.130628527800400E+00
             -0.119133281678081E+01
             -0.720808318842564E+00
             -0.762416888635801E+00
             -0.460360632333605E+00
              0.394509979981371E+00
             -0.190296147286475E+01
             -0.179470274692477E+00
              0.732743180018752E+00
             -0.637679954209378E+00
             -0.437567243685516E+00
              0.928378793441609E+00
              0.772330722786217E+00
             -0.430672162223170E+00
              0.571915206158008E+00
             -0.401267877482918E+00
              0.596663483075778E+00
              0.103701416185395E+00
              0.136785605292152E+00
             -0.126157333235232E+01
             -0.734505127153686E+00
             -0.142226062407904E+00
             -0.804346768698528E-01
             -0.673006884873280E+00
              0.175328619986895E+01
             -0.143439171577219E+00
             -0.404239601244857E+00
              0.601974593681465E+00
             -0.676532268065527E+00
             -0.609584162468711E+00
              0.512008665089018E+00
              0.198104132223368E+00
              0.161494458481199E+00
              0.275231092063497E+00
             -0.165998451098370E+00
              0.121219879642537E+00
              0.897253590633451E+00
             -0.401045510504999E+00
              0.351350737421068E+00
              0.137890758387294E+01
              0.492144069466655E+00
             -0.443991297069530E-01
             -0.333410295609606E+00
              0.241849762726098E+01
             -0.420199073559663E+00
              0.630766936813953E+00
              0.512022996008087E+00
              0.396721862139581E+00
              0.144817168448759E+01
              0.703468933002934E+00
             -0.769860204474138E-01
              0.404126309504710E+00
              0.832684131999480E+00
              0.590617201496351E+00
             -0.970192836423921E+00
              0.147656866749377E+01
             -0.135046569700873E+01
             -0.138894326998638E+00
              0.860957158357034E+00
              0.305989871290133E+00
              0.817257772582884E-01
              0.400429018538383E+00
              0.222860348398999E+00
              0.492953115468662E+00
             -0.964069424917167E+00
              0.459312525348290E-01
             -0.354520699709140E+00
             -0.643615986282442E-01
             -0.499690388728187E-01
             -0.228036367080951E+00
             -0.104476919654306E+00
              0.129662978489507E+01
             -0.611383210487522E-01
             -0.445435102855718E+00
             -0.133540316406294E-01
              0.231373787066806E+00
             -0.101327453543044E+01
             -0.910740483743971E+00
             -0.512724401908532E+00
             -0.985968154007979E+00
             -0.301911188802346E+00
             -0.624262797000481E+00
              0.268948738959405E+00
              0.446823300531356E-01
             -0.208317274154471E+00
             -0.122442914411836E+00
              0.720462229159224E-01
             -0.178300064831278E+00
              0.101472136964539E+01
             -0.139265404659075E+01
             -0.198068677648826E+00
             -0.198581456063704E+00
              0.232006431733706E+00
              0.365556876360330E+00
             -0.808684089338961E+00
             -0.168019420087451E+00
              0.705228450052451E+00
             -0.296004748711896E+00
              0.211496098334931E+00
              0.509054763640072E+00
             -0.575993633508709E-02
              0.179032123990322E+01
             -0.126015871913202E+00
             -0.540891518089284E+00
             -0.235628070889220E-01
             -0.463844605695050E+00
              0.842909280850158E+00
             -0.802702471718357E+00
              0.240862962555443E+00
              0.717394474914371E+00
             -0.195541465585395E+00
              0.183404204112213E+01
              0.198144470184792E+01
             -0.112075279067236E+01
              0.900169037519872E+00
              0.395618330299667E+00
             -0.886225907807690E+00
              0.265683079575881E+00
              0.708210291973922E+00
              0.758532744874376E+00
              0.703303963687314E-01
              0.320617051698308E+00
              0.118910851946210E+01
             -0.362793016031829E+00
              0.129443847315421E+00
              0.100905426809962E+01
             -0.548436688229918E+00
             -0.416072964781434E+00
              0.958905985643896E+00
              0.493266892227195E+00
              0.118744597516941E+01
              0.565476170757606E+00
              0.242646253181368E+00
              0.376233557744289E+00
              0.681850963588736E+00
             -0.856559785170521E+00
              0.138000744597810E+00
              0.479187570978844E+00
              0.170454922107568E+00
              0.392235080971970E+00
             -0.991363107797694E+00
              0.490219672990317E+00
             -0.666294624573581E+00
             -0.492584087683262E+00
              0.327668607842970E+00
             -0.113732877850977E+00
              0.965024207489868E+00
             -0.175526288913664E+00
              0.460139600825344E+00
              0.457922623457820E+00
              0.119537827480915E+01
              0.807177695182737E+00
              0.815327460159065E+00
              0.464300132654749E-03
             -0.198325860845124E+00
             -0.460653323244051E+00
              0.130663601836961E+01
              0.129622545065875E+01
              0.621565499209408E+00
             -0.463921229039199E+00
              0.765739419389998E+00
              0.370375708790842E-01
              0.240016589052352E+00
              0.110901016947532E+01
             -0.505932733578791E-01
             -0.163888436331563E+00
             -0.308784062547032E+00
             -0.100410341365437E+01
              0.151174688742830E+01
              0.833017806933895E+00
             -0.104437873877893E+01
             -0.359374711417134E+00
              0.371210575369234E+00
             -0.160402042025034E+00
              0.103503608237932E+01
              0.243291759161222E+00
              0.127028012836720E+01
              0.492313968663332E+00
             -0.331203449430168E+00
              0.252950995891203E+00
             -0.114706495677904E+00
             -0.359871070018477E+00
              0.262203812987004E+00
              0.235100830011138E+00
              0.142866946307927E+01
              0.117877964733585E+01
              0.912463262932024E+00
              0.103309646935933E+01
              0.116820387002199E+00
             -0.401264626257912E+00
              0.204304073243557E+00
             -0.510174788815958E+00
             -0.909965161417616E+00
             -0.868611258393902E+00
             -0.514569958041791E+00
             -0.168961450450903E+01
             -0.608343881862537E+00
             -0.136121032491890E+01
              0.328996255138127E+00
             -0.699974231471693E+00
              0.830030984906077E+00
             -0.156145171763535E+01
             -0.464532219630990E+00
              0.558245879812842E+00
              0.336713326891946E+00
             -0.143758574421435E+01
              0.795408266668386E+00
             -0.459811250604129E+00
              0.868370850529252E+00
             -0.410556880964876E+00
             -0.122073494442688E+01
              0.279943980410231E+00
             -0.102861574072777E+01
             -0.117610899726173E-01
             -0.363645110766800E-01
              0.632901527265566E+00
              0.197053585553468E+01
             -0.660345504474688E+00
             -0.588635367461914E+00
             -0.125442972202827E+00
             -0.101105206386978E+00
             -0.124801516017170E+01
             -0.882475962440600E+00
              0.774926982044608E+00
             -0.253637346510424E+00
              0.375571270625196E+00
             -0.762904465975700E+00
             -0.255536118350701E+00
             -0.651513064147832E+00
              0.743395662391706E+00
              0.173309580578962E+00
             -0.392142547444128E+00
             -0.298682250779406E+00
              0.221586442881085E+00
             -0.111369867368196E+00
              0.606592545827056E+00
             -0.413958369372281E+00
              0.208867614038049E+00
              0.537678365559573E+00
              0.173229746675176E+00
             -0.400141128172062E+00
              0.241858286733022E+01
              0.958670882227598E+00
              0.173302379410811E+00
              0.823101764163940E-01
             -0.948358143108881E+00
              0.528201019040444E+00
             -0.123070038680813E+01
             -0.558492555054702E+00
             -0.953607556169368E+00
             -0.286853297420866E+00
              0.946068127883696E+00
             -0.912412591356447E+00
              0.441774450680356E+00
             -0.809318501728917E-01
              0.112269693865858E-01
             -0.470015202219232E+00
             -0.640631418428726E+00
             -0.134259993558445E+00
             -0.474971541348020E+00
             -0.339172080389599E+00
             -0.619245132136993E+00
             -0.665090308735564E-01
             -0.488031333472768E+00
             -0.749244095517720E+00
              0.321326095296046E+00
             -0.162908922326968E+00
              0.387645761412203E+00
              0.127883006516257E+00
             -0.119008173741040E+01
             -0.780801523121513E+00
             -0.825886404321549E+00
              0.478183586408276E+00
             -0.124117795910692E+00
             -0.946865868576873E+00
              0.895841416672954E+00
             -0.674095175378122E+00
              0.940325604519608E+00
             -0.495685922883939E+00
             -0.760917727530938E+00
              0.368143121324730E+00
             -0.114471098635535E+01
             -0.475906599763420E+00
              0.904530512403202E+00
              0.333153473237213E+00
             -0.704474393669621E+00
              0.889486634719486E+00
             -0.253704250965055E+00
             -0.584397049326082E+00
             -0.462158777082371E+00
             -0.829332339415545E+00
              0.420399598514994E+00
             -0.136450664276832E+01
             -0.117576814604076E+01
             -0.120061486404134E+00
             -0.454845141909961E+00
             -0.967412063331286E+00
              0.120349446242687E+01
              0.217691816046957E+01
             -0.301740397424472E+00
             -0.644959808635903E-01
             -0.936823285815706E+00
              0.104106562531382E+01
              0.349373188207201E+00
             -0.336790777872638E+00
             -0.563674365084738E+00
              0.215070377345064E+00
             -0.926270198983181E+00
             -0.159355847812308E+00
             -0.133303453459997E+01
              0.527150158702637E+00
              0.169743812197071E+00
             -0.979750060254521E-01
             -0.208063243563393E+00
             -0.682759409193993E+00
             -0.227147703546791E+00
              0.217338834210037E+01
             -0.235907858382817E+00
             -0.779530509688350E+00
             -0.109300716302556E+01
              0.230031697454057E+00
             -0.613452993122837E+00
              0.163999378590892E+00
              0.531314439491281E+00
              0.795987207154387E-01
              0.587422776746267E+00
              0.306257737903806E+00
              0.922853779552931E+00
              0.369434663199587E+00
             -0.584888067436339E+00
              0.892537570383356E+00
              0.536994118153355E+00
              0.198117382906888E+00
              0.567047152223640E+00
             -0.518292843618404E+00
              0.111243615493935E+01
              0.430756018965897E+00
             -0.554206046250851E+00
             -0.920706347019137E-01
             -0.258143569418614E+00
              0.221421093177443E+00
             -0.386136573593487E+00
             -0.215527522670479E+00
             -0.203376440421382E+00
              0.126709532377092E+01
              0.925073108044498E+00
             -0.984869916862270E+00
             -0.140710711385468E+00
             -0.769211606578105E+00
             -0.188769594995859E+00
             -0.334523083375342E+00
              0.183015552164822E+00
             -0.471752621694057E-01
             -0.457724300709763E+00
              0.281088420798873E+00
             -0.150159736743103E+00
             -0.993823262327923E-01
              0.136764537983908E+01
              0.223161808519291E+00
             -0.132888830005630E+01
             -0.593073636818779E+00
              0.152374661133016E+01
              0.362558482400607E+00
             -0.131361079098241E+00
              0.173313205667056E+01
             -0.243544500365417E+00
             -0.112221113683568E+00
             -0.210504741665216E+00
              0.255509696587812E+00
              0.543541449574226E+00
              0.391895361667338E-01
              0.449329619067013E+00
             -0.161578708040929E+00
             -0.658491743733004E+00
             -0.616091891681324E+00
             -0.756294865359123E+00
              0.633512508509201E+00
              0.233822838783911E+00
              0.596334397732845E+00
              0.259242740832871E+00
              0.142492370178195E+01
              0.322477692618576E+00
             -0.120250713807695E+01
             -0.517120442023521E+00
              0.232565263043003E-01
             -0.437438992437958E+00
              0.100716839326015E+01
             -0.249271007630012E+00
              0.257189861959986E+00
              0.880058012940365E+00
             -0.128726572263814E+01
              0.231286637728803E+01
              0.311275820109893E+00
              0.380985729509694E+00
              0.607687975459956E+00
              0.400865181249337E-01
             -0.322405984742478E-01
              0.492506325555119E+00
             -0.557484297872192E+00
              0.137963715942345E+01
              0.120845050343181E+01
             -0.607365419649362E+00
              0.275146084799928E+00
              0.113964970058239E+01
             -0.333906345698829E+00
              0.340956323043931E+00
              0.489608834520370E+00
              0.645150635213563E+00
             -0.115795099305595E+01
             -0.749118601036702E-01
             -0.391217571215068E+00
             -0.101894713882905E+00
             -0.124072338573835E+00
              0.140822412909531E+00
             -0.189595460276707E+00
             -0.485223983254487E+00
              0.286241524279528E+00
              0.876950554346423E-01
              0.838132474305571E+00
             -0.742107099464635E+00
              0.745011408258788E+00
              0.812685930676429E+00
             -0.111346566301667E+00
              0.113977231629926E+01
             -0.105715782774559E+01
             -0.162192305483945E+01
             -0.133537995510286E+00
             -0.101437859782246E+00
              0.241450324885761E-03
              0.123042916546507E+01
             -0.557717278486358E-02
              0.677083098281745E+00
              0.963318511380826E+00
              0.614908918574550E+00
             -0.903619483737828E-01
              0.917694923935430E+00
             -0.267655876668044E+00
             -0.626673461705052E+00
             -0.541527458419750E+00
              0.170858281782850E+00
              0.535190506370690E+00
             -0.374823898812715E-01
              0.514069298717482E+00
              0.145709228728692E-01
              0.853413862583428E+00
              0.239424333291713E+00
              0.124034469162648E+00
              0.240742894474018E-01
              0.450556325055138E+00
              0.647886980664662E+00
              0.220914135674563E+00
             -0.564503182681748E-01
             -0.856454551468404E+00
              0.473634520795275E+00
              0.328956865549438E+00
              0.506717009281626E+00
              0.470061100724589E+00
              0.575513169255707E+00
             -0.145157109890472E+00
              0.557432726765335E+00
             -0.482661863718361E+00
             -0.320869384536806E-01
             -0.822634297059427E+00
             -0.549558931018137E+00
              0.684638836019434E+00
             -0.138508439444070E+01
              0.367759440618940E+00
              0.215756900455053E+00
              0.137690377605270E+01
             -0.171483054590104E+00
              0.530574825957230E+00
             -0.184875808225376E+00
             -0.781468007824925E+00
             -0.101793901302781E+01
             -0.260616162653671E+00
             -0.144683936187746E+01
              0.115059206067469E+00
             -0.331663960188779E+00
              0.525084043015413E+00
              0.402713658031166E+00
             -0.463165314691580E+00
             -0.493081566423331E+00
              0.680848975654638E+00
             -0.900989419228921E+00
             -0.224962736559347E+00
             -0.247377378204632E+00
              0.429438092494810E+00
              0.102440453302952E+00
              0.566802443791516E-01
             -0.222086670500539E+00
              0.839134332480763E+00
             -0.978468526210183E+00
              0.105374923528554E+00
              0.952155123055490E+00
             -0.578492814837638E+00
              0.651127561616494E-01
              0.348120948032076E-01
             -0.101611499122691E+01
             -0.578461322059694E+00
             -0.127928947583726E-01
              0.502425440094702E+00
              0.553773488113260E+00
              0.804273542273988E-01
             -0.191969784582422E+00
              0.253370196626696E+00
             -0.620180852278292E+00
             -0.872185297228150E-01
             -0.837740204211626E+00
             -0.419393950884541E+00
              0.798830950258852E+00
             -0.482762684608677E+00
              0.111998443142220E+01
             -0.380564273342463E+00
              0.513083081741934E+00
              0.404718530919433E+00
             -0.939666924694114E+00
             -0.389653532285336E+00
              0.157031759035483E+00
             -0.669465635520486E+00
             -0.659406146435053E+00
             -0.141264064743173E+01
             -0.871840171672281E+00
             -0.772984008174026E+00
             -0.713977560391140E+00
             -0.112217296775841E-02
              0.409020436340330E+00
              0.210411577918573E+00
              0.451195936176934E+00
             -0.928256117603670E+00
              0.208462974866667E+00
              0.478760445750318E+00
             -0.108505329496111E+01
             -0.885372122839725E+00
             -0.618472642433886E+00
             -0.541125059063533E+00
              0.215049176783296E+00
             -0.530675923989250E-01
             -0.642432783559068E+00
              0.424462998110233E+00
             -0.369392838815944E+00
              0.829976319112247E+00
             -0.138425264120064E+01
              0.102181967183247E+01
             -0.202612167834003E+00
             -0.712852299075851E+00
             -0.428784322554310E+00
             -0.266024160884066E-01
              0.776699798040770E+00
             -0.108783781061797E+01
             -0.194605086002358E+00
             -0.257136086039082E+00
              0.633893562642231E+00
              0.125910565353316E+01
             -0.159574210760223E+01
              0.143844574164188E+01
              0.585161583375400E+00
             -0.120313304157876E+01
             -0.483996990503215E+00
              0.125055458444283E+01
              0.891396372007216E+00
             -0.343815538715851E+00
             -0.117839880903078E+00
              0.302599049379047E+00
              0.123969896096399E+01
             -0.950706147670911E+00
              0.194076851455548E+00
             -0.119268716449720E+00
              0.405496321416524E+00
             -0.110310758502764E+01
             -0.279414053864374E-01
             -0.407717163651826E+00
              0.764241749686545E+00
              0.592771730472269E+00
             -0.141901656683066E+01
             -0.740964287936978E+00
             -0.321343985935648E+00
             -0.703256878857538E+00
             -0.191715565067776E+00
             -0.262914064383273E+00
              0.726644208624979E+00
              0.676629358945934E+00
             -0.134468942172243E-01
             -0.689423389887672E+00
             -0.137383406945632E+01
              0.815007746720372E+00
             -0.714581870738402E+00
             -0.603371222506210E+00
              0.123192782976208E+00
             -0.596458391668192E+00
             -0.634446311257737E+00
             -0.506502934910822E+00
             -0.832506414506985E+00
             -0.363989575395054E+00
             -0.774151585476884E+00
              0.858427576826097E+00
              0.912446193823573E+00
             -0.185471617323673E+00
             -0.321415560619915E+00
              0.557653984314452E-01
              0.665359597835753E+00
             -0.132798570470657E+01
             -0.373010403070761E+00
              0.782212741851341E+00
              0.114938324350112E+01
             -0.144102136324888E+00
              0.157168691260246E+00
              0.831375412526053E+00
              0.241635582801667E+00
              0.507005443497324E-01
             -0.605863447067945E+00
              0.218625727062750E+00
             -0.505604192008337E+00
             -0.104016021407675E+00
             -0.336925288653473E+00
             -0.215581217258280E+00
              0.394479559062601E+00
              0.125580369447009E+01
             -0.130566271395802E+00
              0.248440947768125E-01
             -0.144659748623842E+01
             -0.287153115233432E+00
             -0.553607908301043E+00
             -0.326448174978267E-01
             -0.756626965990463E+00
              0.144201760429851E+01
              0.137806029596078E+01
              0.299917630472465E+00
             -0.389993549749983E+00
              0.297747745851600E+00
              0.310670156926752E+00
             -0.727967831638754E+00
             -0.156017294072396E+00
              0.326961620773341E+00
              0.185532030745270E+00
              0.793094401319203E+00
              0.604579184554250E+00
             -0.324445515807878E+00
              0.320452085995955E+00
             -0.154286905884610E+01
             -0.198678035758317E-01
              0.142495009477243E+01
              0.307249766022347E+00
             -0.484907624019186E-01
              0.416742305703703E+00
             -0.367235901207048E+00
              0.136346069117954E+01
             -0.335856039580676E+00
              0.121031126989212E+01
              0.606343790263103E+00
             -0.720011306106390E+00
              0.528407451208604E+00
             -0.434504879043804E+00
             -0.107240647518952E+01
             -0.128468067392189E+00
             -0.847455673186965E+00
             -0.823749429579596E+00
             -0.146217094891736E-01
              0.607704117467605E+00
             -0.235903833565557E+00
             -0.474745373253919E+00
              0.117066161999658E+00
             -0.102096134771078E+01
             -0.408864570975369E-01
             -0.138631975026997E+01
              0.817656807227594E+00
             -0.611579221745899E-01
             -0.770805246196636E+00
             -0.243265793141930E+00
              0.275981702474449E+00
             -0.612818065735559E+00
             -0.687556181125365E+00
              0.144614583407055E+01
             -0.450251715392450E+00
             -0.572599379623171E+00
              0.523403786337078E+00
             -0.367933214504138E+00
              0.913280489406730E+00
             -0.426886622633482E-01
              0.250953962582434E-01
              0.174274363652982E+01
             -0.120700689132071E+00
             -0.612038215275327E+00
             -0.765965815553850E+00
             -0.804448599859786E+00
             -0.597640463596227E+00
              0.457065699086181E+00
              0.507926177486175E+00
              0.452630234575865E+00
              0.116635171965818E+01
              0.879967563798427E-01
              0.374353897567232E+00
             -0.898195999419785E+00
              0.298350196562387E-01
             -0.239107292860733E+00
             -0.444003010769867E+00
             -0.123565432023986E+00
              0.516077640775598E+00
              0.601079652644923E+00
             -0.454040353334920E-01
              0.212443124266782E+00
              0.431496803637920E+00
              0.533356769456759E+00
             -0.366364300126616E+00
             -0.143287000148471E+00
              0.248017402887957E-02
             -0.414688086055191E+00
             -0.404006208252969E-01
             -0.650112523107443E+00
              0.125114675643313E+01
              0.971810836290635E+00
             -0.307446928145879E+00
              0.275519938696565E+00
             -0.995571306314693E-01
             -0.517293344302248E+00
              0.594266476702443E+00
             -0.146024952024296E+00
              0.575641091608366E+00
             -0.742245680241923E+00
              0.279374744279821E+00
             -0.122998101620926E+00
             -0.840195477576903E+00
             -0.378994004978837E+00
              0.376167733779141E+00
             -0.156329762202642E+01
              0.599931890303858E+00
              0.730239803526981E+00
             -0.161755857036701E+00
             -0.121240607070007E+00
             -0.625640394928584E-01
              0.421104633759210E+00
             -0.542553518949039E+00
              0.486486966122457E+00
              0.509379623801419E+00
             -0.140841679469168E+01
             -0.581963386052637E+00
              0.383198675394991E+00
             -0.197185327635321E+00
              0.794092025983940E+00
             -0.980514198632077E+00
             -0.179008861153784E+00
             -0.623338573018463E+00
             -0.206879441056318E+01
              0.124894729905602E+01
             -0.939197707498143E+00
             -0.107411033496032E+01
              0.100262543402945E+00
              0.203653237618247E+01
              0.117936031120952E+00
             -0.534127253295061E+00
             -0.226851053129824E-01
             -0.503006084494000E-01
             -0.134251232596129E+01
             -0.856065709609277E+00
              0.136363170606325E+01
             -0.207839448895604E+00
             -0.561750285039190E+00
              0.762609714703206E+00
             -0.511274248114819E+00
              0.517457637655721E+00
              0.760023436946905E+00
             -0.821014461100920E+00
             -0.445760322569195E+00
             -0.496040639625345E+00
             -0.281515765218754E+00
             -0.310125902111649E+00
             -0.312645550332521E+00
              0.317355327044583E+00
             -0.565605688932061E+00
              0.436307517204527E+00
              0.860787865408877E+00
             -0.857586561760867E-01
             -0.334491838542945E+00
              0.246482135019337E+00
              0.857716416847226E+00
              0.872884138548786E+00
              0.182731765382859E+00
             -0.182506034123227E+00
             -0.186564071968468E+00
             -0.845067541571827E+00
              0.649112292538681E+00
             -0.389265685184854E+00
              0.368405927384675E+00
             -0.207957692500484E+00
              0.401612432361094E+00
              0.270271392022077E+00
             -0.129133694385209E+01
             -0.397978809956594E+00
             -0.124145292947687E+01
             -0.640648565231167E+00
              0.587584291456953E-01
             -0.313057210649659E+00
              0.561627077187110E+00
             -0.449554838292512E+00
              0.600366432499284E-01
              0.108831024269042E+00
              0.109543653639477E+01
              0.570448629864543E+00
             -0.519532246897952E+00
             -0.472151736110562E-01
              0.248512092824584E+00
              0.584875446994434E+00
             -0.975390475315141E-02
              0.903045117462531E+00
              0.435190255184216E+00
              0.141681438990511E+01
              0.561085757254838E-01
              0.976212227755306E+00
             -0.432183416352091E+00
             -0.616855755132886E+00
              0.268630059135093E-01
              0.173905614331433E+00
              0.344367362086190E+00
             -0.353268391166044E+00
             -0.167371245809429E+00
              0.368523942435276E+00
             -0.756474245257623E+00
             -0.955469846843445E+00
              0.125359812586321E+01
             -0.991630226020188E-01
             -0.571091163591472E+00
             -0.866170638802146E-01
             -0.217307758504903E+00
              0.711345896995315E+00
              0.572151593037953E+00
             -0.326467127495988E+00
              0.565984736845193E-02
             -0.405284884293411E+00
             -0.565878536264943E+00
             -0.365135466652209E+00
             -0.153800567365612E+01
              0.353672757512049E-01
             -0.101409093947946E+01
             -0.934786056624769E+00
             -0.582818689013161E+00
              0.357651745212119E+00
             -0.607051467424340E+00
              0.384009786211313E+00
             -0.103521868020811E+01
              0.197277042768551E-02
             -0.664083094874500E+00
              0.127628333151423E+00
              0.120553050699298E+00
              0.576449144715975E+00
             -0.334175571345187E+00
             -0.299502860811804E+00
              0.514083416338019E+00
              0.945469552386276E+00
              0.510671940687974E+00
              0.173887364881301E+00
             -0.118598867975314E+01
             -0.257187061061538E+00
             -0.433968492031526E+00
             -0.971884304571026E+00
              0.684362032798276E+00
             -0.546883269223637E+00
             -0.122420876850932E+00
             -0.449148595852366E+00
             -0.155704304902094E+01
              0.890631407356745E+00
             -0.295659887098428E+00
              0.608401775865902E+00
             -0.117457535159723E+01
              0.103834606753565E+01
              0.991108187674268E-01
             -0.398638009430976E+00
              0.170018883090123E+00
             -0.306815454146272E+00
             -0.981389814534427E+00
              0.277203177957543E+00
              0.642966167284478E+00
             -0.281795764338160E-01
             -0.543384733422554E+00
             -0.258426353157493E+00
              0.338425991159765E+00
              0.591303467958877E+00
              0.970698977591820E+00
              0.353034039626776E+00
             -0.361777884543211E+00
              0.160275633726589E+01
              0.320554821266150E+00
              0.764835714810063E+00
             -0.264427217775955E+00
              0.462252392876077E+00
              0.387709191822088E+00
             -0.979264030756295E+00
             -0.352846876386723E+00
             -0.638734950916284E+00
             -0.674083858536556E+00
             -0.197598124811452E+00
             -0.119647438149354E+00
             -0.750513404262410E+00
             -0.174758121025124E+01
             -0.422513660660692E+00
              0.210575265061880E+00
              0.892936417760470E-01
              0.262088662066957E+00
              0.618974253209230E+00
              0.151122599089057E+00
              0.492065273246042E+00
             -0.685407430136169E+00
              0.677063851580289E+00
             -0.604062208682175E+00
             -0.104483306533531E+01
              0.318011921519352E+00
             -0.669068500952006E+00
             -0.625322868147132E+00
             -0.251598344008007E+01
             -0.112519963629076E+00
              0.133760518848689E+01
              0.634644911568994E+00
             -0.164963387147744E+00
             -0.160744947668212E+00
              0.719592949236563E+00
              0.100017229507684E+01
             -0.620643935639805E+00
             -0.200074288715811E+00
             -0.576643597052831E+00
             -0.521571464149032E+00
             -0.461340527673715E+00
              0.155959600470711E+00
              0.108418668574836E+01
             -0.102925792176348E+01
             -0.860205063999388E+00
              0.630483594619422E-01
             -0.236774624458336E+00
             -0.277934442858385E+00
             -0.139868275644569E+01
              0.100423945402490E+01
              0.304993625247884E+00
              0.146218355086075E+00
              0.821357036832514E+00
             -0.522160986050523E+00
              0.533730822539311E+00
              0.454108066096007E+00
              0.142446120053936E-01
             -0.132743445654548E+00
              0.128166932205174E+00
             -0.246978941579450E+00
              0.834644316707356E+00
             -0.615923947065640E+00
              0.737788962108533E+00
              0.146588326354086E+00
              0.279595810208491E+00
              0.308215172126305E+00
             -0.127774228759179E+01
              0.169186246991050E+00
             -0.105673534773370E+01
             -0.756261908632598E+00
             -0.744811385795097E+00
             -0.839426811063861E+00
              0.692208457623522E-03
              0.307115631463069E+00
              0.786398971963983E+00
              0.109571114393481E+00
              0.239001948733344E+00
             -0.108883614520098E+01
             -0.438651116650420E+00
              0.512850937757881E+00
             -0.676967387847331E-01
             -0.626621926524877E-01
             -0.156822490394738E+00
              0.556365060702229E+00
             -0.142940257460481E+01
              0.209194791611231E+00
              0.320004485561630E+00
              0.609530490381887E+00
              0.575796914392100E+00
             -0.889226562469156E+00
              0.266856773071201E+00
              0.110783251666949E+00
              0.114624926113041E+00
              0.102154752122697E+00
             -0.318372145149906E+00
             -0.699063035568297E+00
              0.281821580011364E+00
              0.911904548778577E+00
             -0.741147223286731E-02
              0.221422683860511E+00
              0.193919536663446E+00
             -0.498681488603726E+00
             -0.529534265132881E+00
             -0.194435736850953E+01
             -0.595935705514748E+00
             -0.944950034794664E+00
             -0.995119124702253E-01
             -0.108373196555648E+01
              0.119000819072337E+01
             -0.540039218998205E+00
             -0.871876717390877E+00
             -0.247327414955540E+01
              0.105962809688618E+01
              0.238245396217962E+00
              0.182633493938854E+00
             -0.959882527840529E+00
              0.658149856346872E-01
             -0.265152089961934E+00
             -0.488901066412813E+00
              0.122621026745848E+00
              0.513941287957770E+00
              0.744082654926841E-01
             -0.333178612586909E+00
              0.746866838358553E-01
              0.252768133605041E-01
              0.148880482764998E+00
             -0.106615919312850E+01
              0.116879548019420E+01
             -0.650055574454114E+00
             -0.418115687101466E+00
             -0.832975808329952E+00
             -0.175036982770316E+01
              0.621983347088932E-01
             -0.921478500887275E+00
             -0.278554854912787E+00
              0.481740786449749E+00
             -0.428636361691495E+00
             -0.198616984965771E+00
             -0.208475559575837E+00
             -0.301737926093272E+00
              0.548542496521689E-01
              0.817051911237186E+00
             -0.790081797850967E+00
              0.165642911299584E+01
             -0.413135953014231E+00
              0.506804456399536E+00
             -0.299608833183789E+00
              0.182027626510895E+00
             -0.187224303489502E+00
              0.697510899767114E+00
              0.982986497121798E+00
              0.284410255150558E+00
              0.677454885135774E+00
             -0.447059294150748E+00
             -0.125677897579113E+00
             -0.370253619948928E+00
              0.999020274620214E+00
              0.867011876951157E+00
              0.626560520656289E+00
             -0.201011210630051E+00
             -0.396383200339573E+00
              0.380272626067634E+00
             -0.468942472162130E+00
             -0.236476592605610E+00
             -0.888906766548067E-01
             -0.574658142528362E+00
              0.764952455633667E+00
             -0.185281665765214E+00
              0.558250044111740E+00
              0.364008700237299E+00
              0.232141492102379E+00
             -0.529370298403712E+00
              0.381318011993581E+00
             -0.208553603032966E+00
             -0.108639625329566E+00
             -0.100616375475209E-01
             -0.753614374838493E+00
              0.122092811350819E+01
             -0.413514700401038E+00
              0.573431031306537E-02
              0.395470178007719E+00
              0.338368112403042E+00
              0.123086756920842E+01
             -0.346715979726010E+00
              0.117802744617730E+01
              0.104909037192713E+01
             -0.146404883461713E+01
              0.102207465318505E+00
             -0.283730631569881E+00
              0.193799513950513E+00
              0.734088476816241E-01
              0.342987856702483E+00
              0.101220001089469E+01
              0.158695843189383E+01
             -0.114685382572275E+01
              0.119557006587793E+01
             -0.159476994619992E+01
             -0.138005828816897E+01
             -0.238877134826121E+00
              0.162267181002309E-01
              0.125891182493771E+01
              0.501637012459225E+00
             -0.199929469970459E+00
             -0.129138992294508E+01
              0.104724882130010E+01
             -0.644494057278560E+00
              0.291704741385530E-01
             -0.882307068168591E-01
              0.205193584415894E+01
             -0.340951579504836E+00
             -0.165651266289531E+01
              0.474573614310420E+00
             -0.255396854313888E+01
              0.205638463364100E+00
             -0.610350929244949E+00
             -0.278211458384993E+00
             -0.397687948053860E+00
             -0.938538782335269E+00
              0.565763630108328E+00
             -0.577891516693922E+00
             -0.220194315783043E+00
             -0.118866197197480E+01
             -0.578618649570917E-01
             -0.859143567212316E+00
             -0.122194377720348E+01
             -0.164599149809950E+01
              0.129627343500162E+00
             -0.597275931314168E+00
              0.179330189179071E+00
             -0.222082223374532E+00
             -0.131959857099605E+01
             -0.101583935140972E+01
             -0.904961667937521E+00
             -0.936882465408537E+00
              0.823442829881973E+00
              0.799704501715615E-01
             -0.781953487209630E+00
             -0.400459895084246E+00
             -0.448436569432201E+00
              0.666152397434414E+00
             -0.468450056323663E+00
             -0.569407731888647E-01
             -0.517224675952695E+00
             -0.623513541731309E+00
             -0.663722164840884E+00
              0.637455920474219E+00
             -0.190866425770084E+00
             -0.145485412633678E+01
              0.121466628761636E+01
              0.706371506840243E+00
              0.385390140294541E-01
             -0.129668917950777E+01
             -0.116713690648236E+01
              0.756734690463192E-01
              0.101358127928695E-01
             -0.544743218144571E+00
             -0.676965236074218E+00
              0.466175580590797E+00
             -0.706622312661267E-01
              0.432393111097691E+00
              0.750069379118173E+00
              0.553374049868971E+00
              0.374882301311850E+00
              0.334977306773258E+00
             -0.355789260896040E+00
             -0.248535397719922E+00
             -0.294236399333334E+00
             -0.609471315921161E+00
             -0.733973265044665E+00
             -0.941697358956586E+00
             -0.556638114515697E+00
             -0.199731673906922E+00
             -0.115901720629105E+01
             -0.284805164027011E+00
              0.582455221403318E+00
             -0.135995731000622E+01
              0.599539805113490E+00
              0.489550953532313E+00
             -0.114382352747914E+01
             -0.870880232018060E+00
             -0.373499731338795E+00
              0.176957372479766E+00
             -0.656330422884098E+00
              0.120119516531342E+01
              0.105651680596913E+01
             -0.122580520869759E+01
              0.636165566997636E+00
              0.570339679431580E+00
              0.168175599553096E+00
              0.282018965131594E+00
             -0.675712035150894E+00
             -0.252471490445083E+00
              0.108505960615540E+00
              0.328023201693722E+00
              0.642941797543984E+00
             -0.856071650215509E+00
             -0.192425434221541E+00
              0.248549303503525E+00
              0.188895608896254E+00
             -0.555606311351384E+00
              0.296397057473518E+00
             -0.386249484862774E+00
             -0.284646855177028E+00
             -0.224703963483108E-01
             -0.977818958048648E+00
             -0.159396993859622E-01
             -0.114578228469814E+00
             -0.243386530394685E+00
              0.273165355721861E+00
             -0.823132437072897E+00
              0.932913330429503E+00
             -0.335957718133192E+00
             -0.212895414039149E+01
             -0.135820225662701E+01
              0.542076282558988E+00
             -0.672454865810047E+00
             -0.341984432002644E+00
             -0.354729884962153E+00
             -0.311101472379016E+00
             -0.164647081326735E+01
              0.983904607386066E-03
             -0.976015352388218E+00
             -0.542272223905514E+00
              0.294523357692429E+00
              0.126855416677059E+01
              0.835357322020935E-01
              0.483987197360691E-01
              0.950996088675473E+00
             -0.938913213854488E+00
              0.428544815107830E+00
              0.829390631774825E-01
             -0.853296668603023E+00
             -0.508337997482979E+00
              0.298322527468168E+00
              0.536647360081881E-01
              0.282034314258449E+00
              0.212736607877827E+00
             -0.368001986375738E+00
             -0.536245025683940E+00
             -0.786846767247882E+00
              0.791885967066045E+00
             -0.108275091583736E+01
             -0.805222585460146E+00
              0.229394125136147E+00
             -0.131787514721327E+01
              0.382452746388239E+00
              0.946193736463282E+00
             -0.200092335682123E+00
              0.333536228895869E+00
             -0.552566197904516E+00
             -0.352321119273828E+00
              0.166794735847356E+00
              0.568959477913363E+00
             -0.569674934863746E+00
              0.342724942164724E+00
             -0.229917304754457E+00
              0.140158559208750E+00
              0.284829974295098E+00
              0.137506019044337E+00
             -0.210576195415191E+00
             -0.153049310466002E-01
              0.161130074612830E+00
              0.447127321869438E+00
             -0.111418780032311E+01
             -0.397183509897765E-01
              0.824668639025683E+00
             -0.137366713689502E+01
              0.522726685249146E+00
             -0.178457483695841E+01
             -0.186657495964367E+00
             -0.221938569365024E+00
             -0.408752737366207E-01
             -0.209738694679261E+00
             -0.438237913954877E+00
             -0.177595889722197E+00
              0.174643590115685E+00
             -0.414191774226251E+00
              0.170580839907973E+00
              0.144358999875119E+01
             -0.886016568649175E+00
             -0.394658385734763E+00
              0.672181037600509E+00
              0.323342287394438E+00
              0.682066298331278E+00
              0.328940830691660E+00
              0.241520651861012E+00
             -0.221777654598551E+00
             -0.776980835820327E+00
             -0.715687623037351E+00
             -0.571733165038491E+00
              0.104192451357522E+00
             -0.667140260113042E+00
             -0.178756115628287E+00
              0.908230303620070E-01
              0.387410446237696E+00
             -0.991738575913399E-01
              0.939271132067169E+00
             -0.106171709786369E+01
             -0.123612846468655E-01
             -0.123607313543451E+00
              0.501626673548886E+00
             -0.667501583715457E+00
             -0.437355173615310E+00
              0.182600178386918E+00
              0.704595044092488E+00
              0.120335671898720E+01
              0.465417755396990E+00
              0.736344291084760E+00
             -0.380672818876538E+00
              0.100027882335100E+01
              0.993558886345505E+00
             -0.611780397446715E-02
              0.457355767519608E+00
              0.588414745878112E+00
             -0.315282475931957E+00
              0.248500716264166E+00
              0.104028282226652E+01
             -0.324958703479277E+00
             -0.888509295295350E-01
             -0.987853404406468E+00
              0.336192545231836E+00
             -0.252067195419259E+00
              0.348402527229752E+00
              0.901283316649826E-02
             -0.615508529452546E+00
              0.722172141899804E+00
              0.613715530941604E+00
             -0.505398597685973E+00
              0.267444154187211E+00
             -0.949774651088360E+00
             -0.864527567869768E+00
              0.391288877556129E+00
             -0.107418861251167E+01
             -0.552719538481043E+00
             -0.682436340271764E-02
              0.136762463239295E+01
             -0.353302288507797E+00
             -0.180664798398755E+00
             -0.333167520907462E+00
              0.176646651734060E+01
              0.294686091752085E+00
             -0.670653905288522E+00
              0.112721070821688E+01
              0.985326393355489E+00
              0.520555008511590E+00
              0.127100982339764E+01
              0.138779318039687E+01
             -0.403149056980684E-01
             -0.449592475511784E+00
             -0.386713535506912E+00
              0.439342851976401E+00
              0.615281904893077E+00
             -0.119799773007000E+00
             -0.384202965797596E+00
             -0.898250392468428E+00
             -0.305470023717514E+00
             -0.733707827900785E+00
              0.536766819399387E+00
              0.284501751191996E+00
              0.953540406964839E+00
              0.230172671029455E+00
             -0.359852792655813E+00
             -0.136103758157578E+00
              0.625964657278388E+00
              0.159184466275560E+00
              0.991454833070974E+00
              0.869965891752783E+00
             -0.121624852974719E+00
             -0.143483824838619E+00
             -0.162068276491833E+01
              0.772182421990733E+00
              0.502527434926847E-02
              0.927008114191902E+00
             -0.421434582085111E+00
             -0.105516310402104E+01
              0.298975973752589E+00
              0.115330570578825E+01
             -0.396666777616107E+00
              0.103379702645771E+01
             -0.113053388882115E+01
             -0.417238610056338E+00
             -0.136621633892316E+01
              0.237841519246650E+00
              0.630084427270798E-01
              0.147346206238526E+00
             -0.983802646669503E+00
              0.148084225913556E+01
              0.852556462705339E+00
              0.886352139487432E-01
             -0.880659347406282E+00
              0.322513552275042E+00
             -0.272702603005404E+00
             -0.245280456966583E+00
             -0.438906626736097E+00
              0.259134922851851E+00
             -0.287055692404925E+00
             -0.286166077057838E+00
              0.378308924818100E+00
              0.365776781547643E+00
             -0.142782717738737E+01
              0.309884650548283E+00
              0.104119542727196E+01
              0.668932085361119E+00
             -0.205513807312241E+00
             -0.425421927872568E-01
             -0.583150845177024E+00
              0.874645577342674E+00
              0.123897531299160E+00
             -0.421402032097875E-01
             -0.948807884371270E-01
              0.170987521816347E+01
             -0.129307895374611E+00
              0.331930313801327E+00
              0.118377509774864E+01
              0.151034040318869E+01
              0.930663524832541E+00
              0.609419796066259E+00
             -0.101509318941219E+01
             -0.736708411709693E+00
              0.571559062041394E+00
              0.948282589751157E-01
              0.485492413108600E+00
              0.185554290561062E+00
              0.103902578231584E+01
             -0.125863882320037E+01
             -0.768893094212538E+00
             -0.188128668282532E+00
             -0.137693465183827E+01
              0.306104431747461E+00
              0.744155958935216E+00
             -0.182125765583425E-01
             -0.319887414683334E+00
              0.323157993783760E+00
              0.210986866126313E+01
              0.514014801452225E+00
              0.280123796674597E+00
             -0.735771048354615E+00
             -0.899658155087730E+00
             -0.214686694601773E+00
              0.452926796091118E+00
             -0.928617697332266E-01
              0.432957681127888E+00
              0.564050751896538E+00
             -0.956171651801712E+00
              0.429688983662139E+00
              0.492057234717727E+00
              0.873604203671938E+00
             -0.166215857446566E+00
              0.923977438080650E-01
             -0.106537894446167E+00
             -0.688872653212671E+00
             -0.116654567734856E+01
              0.117597629386744E+01
             -0.162641920396422E+00
             -0.820659136597892E+00
              0.144147075241183E+00
             -0.493340965790175E+00
              0.133632072010503E+01
             -0.362054587295491E+00
             -0.605115219552139E+00
              0.604319288530373E+00
             -0.248130467169145E+00
              0.735830934161885E+00
              0.630716496679922E-01
              0.143702875312895E+01
              0.832609192295938E+00
              0.221237759712227E+00
             -0.626848463672880E+00
              0.456603399721336E+00
             -0.850293384865231E+00
             -0.578766046091650E-01
              0.102350977339747E+01
             -0.397766271238192E+00
             -0.672421496640352E+00
             -0.363557738619752E+00
              0.807823180155089E+00
              0.169177208821958E+00
             -0.127110739743605E+01
              0.546199125316413E+00
              0.837522120677345E-01
              0.186267753507253E+00
             -0.765661696959386E+00
              0.170898038215430E+00
              0.536950975636568E+00
              0.705209155205442E+00
              0.103702990361292E+01
              0.571346889794889E+00
              0.116942919198465E+00
             -0.885984576264470E+00
             -0.655302236865445E+00
             -0.990495753471321E+00
             -0.242906565119171E+00
              0.550137447795037E+00
             -0.132139041165957E-02
              0.817876118498075E+00
             -0.505899886447340E+00
              0.265144115331534E+00
             -0.393230722830847E+00
             -0.421777417074829E+00
              0.926387793158440E+00
              0.793135825326052E-01
              0.989550950192578E+00
              0.877183396316017E-01
              0.299091448797988E+00
             -0.245634724549907E+00
              0.934341436176690E+00
             -0.273886724877594E+00
              0.662533429182915E-02
             -0.123009881593029E+01
             -0.105202281911268E+00
              0.108420232317288E+01
              0.100126618797626E+01
              0.397595999698376E+00
             -0.241860024760876E+00
              0.950263212224254E-01
             -0.387488157330387E+00
             -0.334444121866242E+00
              0.141614881003752E+01
              0.135964608097913E+00
             -0.464854953781680E+00
             -0.165775947531853E+01
             -0.642318606579772E+00
             -0.599963439506995E+00
             -0.937946770643626E+00
             -0.949226660939374E+00
             -0.110883100001540E+01
             -0.707552938083863E+00
             -0.421151912745687E+00
             -0.751652029882627E+00
              0.691724732074565E+00
             -0.257758998464935E+00
             -0.128347010726272E+01
              0.656240081810302E+00
             -0.544191675844651E+00
             -0.123553511023006E+01
              0.158916649815246E+01
             -0.408032470353144E+00
              0.223984481530788E+00
              0.584203667157450E+00
              0.245450371531855E+00
              0.420482560545882E+00
              0.146717347904528E-01
              0.242512287295233E-01
             -0.210681184987388E+00
             -0.116632978015187E+01
              0.169912987602237E+00
             -0.186304514484656E+01
              0.116242057313671E+01
             -0.632173915175179E+00
             -0.306250327832109E+00
             -0.332155183694358E+00
              0.374440749808123E+00
             -0.246996125086978E+00
              0.435201066189533E+00
             -0.927112895197524E+00
              0.563062852668962E+00
              0.690956038772732E+00
              0.118888101543079E+00
              0.153530852424089E+00
              0.340386317723302E+00
              0.164507535399887E+00
              0.464178781602877E+00
             -0.545786210579848E-01
             -0.120585942793914E+01
              0.149578694571847E+00
             -0.563554333713110E+00
             -0.440622908555675E-01
              0.903066100374726E+00
             -0.125265754478587E+01
              0.458951707741733E-01
              0.612564280354801E-01
              0.154043858713146E+00
              0.470926808216691E+00
             -0.199093100308101E+00
              0.132284718027059E+01
              0.539818623632334E+00
             -0.213464846740627E+00
             -0.122974267417043E+00
              0.109456874022472E+00
              0.123054628516022E+01
             -0.755879854574351E+00
             -0.158171478523239E+01
              0.463665746207183E+00
             -0.128842117742431E+00
             -0.259898152831166E+00
              0.307066151835432E+00
              0.117538270793714E+01
              0.641082758248745E+00
             -0.265013001069105E+00
             -0.865175040980916E+00
             -0.217915841637751E+00
              0.427429541023224E+00
             -0.293857675492288E+00
             -0.120548223995098E+01
             -0.169348640690904E+00
             -0.155329534558348E+01
             -0.819064441965112E+00
              0.139765025517426E+01
             -0.829381534936698E+00
             -0.113597744833282E+01
             -0.840539258772209E+00
             -0.642435409376892E+00
              0.547129218280177E+00
              0.134574730585533E+01
             -0.176545200447450E+00
              0.419241835204719E+00
             -0.328259935463690E+00
             -0.107082689802755E+01
              0.832151266125556E+00
             -0.773792245417479E+00
              0.380784024111239E+00
              0.424039746087677E+00
             -0.264743634108098E+00
              0.560667486075812E+00
              0.589448367996534E+00
              0.194030114001874E+01
             -0.145077559083564E+00
             -0.928775871271121E+00
             -0.105265825987638E+01
             -0.310523470699501E+00
             -0.695715549209647E+00
              0.144877279117125E+01
             -0.724375486195686E+00
              0.156621029990343E+00
              0.214842932581396E-01
             -0.293158795485750E+00
             -0.137413711493413E+01
             -0.107342177505235E+00
              0.159003153085424E+01
              0.370622748048441E+00
              0.113263963011594E+00
             -0.948008410425678E+00
             -0.844629318779683E+00
             -0.303746716484681E+00
              0.710255127782631E+00
             -0.429390747828256E+00
              0.157447118306076E+01
             -0.771827274748494E+00
              0.301770866337703E+00
             -0.189165356442555E+00
             -0.964807380037649E+00
              0.116275030599725E+00
             -0.909246421688360E+00
             -0.116409755797872E+01
              0.183053258516157E+00
              0.185829037507612E-01
              0.767957612763284E+00
              0.436442733935771E+00
             -0.564776211776187E+00
              0.340282360996233E+00
             -0.141935307550945E+01
             -0.731733882179920E+00
              0.147445504821193E+01
              0.228812172381397E-01
             -0.620641360353567E-01
             -0.368795040616985E+00
              0.143628579873933E-04
             -0.202247017344533E+00
              0.147952497820653E+01
              0.658048195412897E+00
             -0.113337918153321E+00
              0.225077206172415E-01
             -0.592079933242845E+00
             -0.173622537196231E+00
             -0.962990147536533E+00
              0.830055253923738E+00
              0.106181225001412E+00
              0.111483395278508E+00
              0.308714551726946E+00
             -0.239076411243752E+00
             -0.371322918158458E+00
              0.168218703520984E+00
             -0.177521379963750E+01
             -0.153724887870249E+00
             -0.163307845443260E+00
             -0.924391465322920E-01
              0.744555729372129E+00
              0.103181156455048E+01
              0.288345503438888E+00
             -0.146536945938263E+01
              0.100700518151381E+01
             -0.386787466134689E+00
             -0.581278285104556E+00
             -0.137698606728498E+01
             -0.411139587560084E+00
              0.101512341467924E+01
              0.550754727912759E+00
              0.278877124795088E+00
              0.563098672543598E+00
             -0.877080315797659E+00
             -0.784135385602049E+00
              0.101034515719563E+01
              0.661798211661964E+00
              0.729919375842706E+00
              0.170656186645155E+00
              0.180441153414383E+00
              0.831307312894597E+00
              0.155772491926018E+01
             -0.265982289895037E+00
              0.647246478868524E+00
             -0.502187576590008E+00
             -0.691851150303453E+00
             -0.555258865809018E+00
             -0.541804996493928E+00
             -0.221957801004047E+00
             -0.743125302314060E+00
             -0.288593300887473E+00
             -0.202128303521042E+01
              0.496351466582571E+00
              0.468691455566389E+00
             -0.528208408666040E-01
             -0.570735075251914E+00
             -0.272029026354919E+00
             -0.903209564548784E+00
              0.802476951203364E-01
              0.124457760434921E+01
             -0.290721977325392E+00
             -0.307112757457379E+00
              0.298242677258241E+00
             -0.815334926721917E+00
              0.135306011917252E+01
              0.240624588404215E+00
              0.717375154195743E-01
              0.818175962043266E+00
             -0.120821190743404E+00
              0.936380305951846E+00
              0.326623326580676E+00
             -0.149154716630289E-01
              0.222732020036293E+00
             -0.183127479960159E+00
              0.105365860621984E+01
              0.113240116702777E+00
              0.354714659099677E+00
             -0.144276053741172E+00
              0.160129508022909E+00
             -0.148709912911222E+01
             -0.546737072757693E+00
             -0.792400893813619E+00
              0.785263891921062E+00
             -0.576290595286379E+00
             -0.857283593932769E+00
              0.945197272648343E+00
             -0.217264589756285E+00
              0.653826392963874E+00
             -0.139560690385463E+01
              0.265462406191619E+00
              0.485046041118571E-01
              0.115503183317644E+00
             -0.228196896111985E+00
             -0.103350022225956E+00
              0.790511737486286E+00
              0.430786445456075E-01
             -0.848959259800351E+00
             -0.361353494231774E+00
              0.271129885015339E+00
             -0.182757871092911E+01
             -0.136178039553389E+01
              0.107069649035778E-01
              0.270581602968636E+00
             -0.834197512825170E+00
              0.305672769587568E-01
              0.161490447605729E+01
              0.441048384708298E+00
             -0.853064441823925E+00
              0.115187842712114E+00
             -0.166169679079222E+00
              0.218570158147988E+00
             -0.578679473847684E+00
              0.380641036174191E+00
              0.362001063444047E+00
             -0.137297674645715E+00
              0.178421946899731E+01
             -0.520555290927787E-01
             -0.478405185915827E+00
              0.513618823156968E+00
              0.681835011316627E+00
             -0.497414649668713E+00
             -0.650971253909294E-02
              0.156165117625385E+01
             -0.131302291163209E-01
              0.809520366990309E+00
              0.264428387335862E+00
             -0.962437834457224E-01
             -0.220135629063930E+00
              0.728493242757636E+00
             -0.942287300736436E+00
             -0.285505126623620E-01
             -0.327424682561240E+00
             -0.630653655343201E+00
              0.171393772503366E+00
              0.405417554340756E+00
             -0.473581522979005E-01
             -0.285733639156662E-01
             -0.665800127294782E+00
              0.222480844201807E+00
             -0.203934234359100E-01
             -0.331548838772778E+00
             -0.311615826108526E+00
              0.249115113779222E+00
              0.169421334575581E-02
             -0.617671537100684E+00
             -0.170351401093236E+01
              0.102009851949364E+00
              0.213791745311348E+00
             -0.773468148784403E+00
             -0.410924062035897E+00
              0.130444739302237E+01
              0.221724660168539E+00
              0.721611732085870E+00
              0.185303953514929E+00
              0.633176661111950E+00
              0.289169483474572E-01
             -0.628755744763706E+00
             -0.219922365249703E+00
              0.791631166643993E-01
              0.502086289065253E+00
              0.115530166114813E+01
              0.778629105700569E+00
              0.486002423226339E-01
              0.177460760871838E+00
              0.965068890481875E+00
              0.451364783570866E+00
             -0.108810028676147E+01
             -0.438488812282624E+00
              0.168484285454972E+00
              0.163680833472770E+00
              0.397067830147200E+00
             -0.802807708897832E+00
              0.531494725375834E-01
              0.664236681552974E+00
              0.767133396149212E+00
             -0.660888833366528E+00
              0.666024129838814E-01
             -0.423131815363194E-01
             -0.342742949569909E+00
             -0.375158522334704E+00
             -0.164912390696371E+00
             -0.229571986161834E+00
              0.186924706654326E+00
              0.666884658340699E+00
             -0.512408630260257E+00
              0.128925884459235E+01
              0.519100346704604E+00
              0.421420293814218E+00
              0.608992244234243E+00
              0.370936116892079E+00
              0.576743347975400E+00
              0.879320239610661E+00
             -0.753935005674885E+00
              0.998205911684225E+00
             -0.181367577524848E+01
              0.494816386626090E+00
             -0.165176192333029E+01
              0.126200135139944E+01
              0.124834765118133E+01
             -0.124634869558800E+00
             -0.730161194223940E+00
             -0.691152325496417E+00
             -0.839424148567854E+00
             -0.105376139962316E+01
              0.861544555507854E+00
              0.678237821816998E+00
              0.381603276644968E+00
              0.385089484698291E+00
              0.725681678077656E+00
             -0.654963458464923E+00
             -0.216912095770540E+00
              0.843286039386502E+00
             -0.197589115822056E+00
              0.787322988322953E+00
              0.124401252727911E+01
             -0.645463700610566E-01
             -0.120699732178089E+01
              0.111767598332865E+00
              0.260930322263961E-01
             -0.164502768928389E+00
              0.476516862407972E-01
             -0.101744739184873E+01
             -0.100066541219598E+00
              0.240649996128433E+00
              0.245695112722066E+00
              0.801209335520581E+00
             -0.672083035189796E+00
              0.783676364735459E+00
             -0.602415256367002E+00
              0.449584370669172E+00
              0.700843025807706E+00
 
 BEEF-vdW xc energy contributions
           1 :   -10.9281741274627     
           2 :    8.83807885133239     
           3 :   -5.88566131348674     
           4 :    3.18725594217547     
           5 :   -1.23187699966252     
           6 :   8.793782530489302E-002
           7 :   0.382476662379785     
           8 :  -0.428981172390023     
           9 :   0.318806599759407     
          10 :  -0.253815259538763     
          11 :   0.302648561962355     
          12 :  -0.413152779488810     
          13 :   0.488303359891376     
          14 :  -0.466509260258597     
          15 :   0.343953279883479     
          16 :  -0.166111950667945     
          17 :  -9.838500388958948E-005
          18 :   9.912574102818361E-002
          19 :  -0.116218470830310     
          20 :   7.728989700514433E-002
          21 :  -2.742615595646924E-002
          22 :   5.527003539640418E-004
          23 :  -4.162070543559437E-003
          24 :   1.982048529589342E-002
          25 :  -2.161266414681151E-002
          26 :  -5.073676576575537E-003
          27 :   5.372982036144158E-002
          28 :  -0.102382401657856     
          29 :   0.127436999832256     
          30 :  -0.120876457541470     
          31 :   -1.53403659883154     
          32 :  -0.936565505406607     

     Writing output data file ./pwscf.save/
 
     init_run     :     67.92s CPU     70.56s WALL (       1 calls)
     electrons    :    616.14s CPU    671.22s WALL (       1 calls)
     forces       :     27.65s CPU     30.03s WALL (       1 calls)

     Called by init_run:
     wfcinit      :      1.91s CPU      1.97s WALL (       1 calls)
     potinit      :     56.98s CPU     58.95s WALL (       1 calls)
     hinit0       :      7.40s CPU      7.52s WALL (       1 calls)

     Called by electrons:
     c_bands      :     93.24s CPU     94.34s WALL (      18 calls)
     sum_band     :     44.39s CPU     51.91s WALL (      18 calls)
     v_of_rho     :    369.35s CPU    404.34s WALL (      19 calls)
     newd         :     18.31s CPU     25.84s WALL (      19 calls)
     PAW_pot      :      1.73s CPU      1.73s WALL (      19 calls)
     mix_rho      :    139.38s CPU    145.55s WALL (      18 calls)
     vdW_kernel   :     33.86s CPU     33.86s WALL (       1 calls)

     Called by c_bands:
     init_us_2    :      1.71s CPU      1.73s WALL (      37 calls)
     regterg      :     90.18s CPU     91.28s WALL (      18 calls)

     Called by *egterg:
     rdiaghg      :      0.02s CPU      0.02s WALL (      95 calls)
     h_psi        :     82.24s CPU     82.25s WALL (      96 calls)
     s_psi        :      1.92s CPU      1.92s WALL (      96 calls)
     g_psi        :      0.30s CPU      0.30s WALL (      77 calls)

     Called by h_psi:
     h_psi:calbec :      1.53s CPU      1.53s WALL (      96 calls)
     vloc_psi     :     78.33s CPU     78.33s WALL (      96 calls)
     add_vuspsi   :      1.89s CPU      1.89s WALL (      96 calls)

     General routines
     calbec       :      1.96s CPU      1.96s WALL (     118 calls)
     fft          :    290.60s CPU    290.64s WALL (    3050 calls)
     ffts         :     57.44s CPU     57.44s WALL (     625 calls)
     fftw         :     74.73s CPU     74.73s WALL (     808 calls)
 
     Parallel routines
 
     PWSCF        :  21m 0.88s CPU  23m 2.31s WALL

 
   This run was terminated on:  16:38:56  20Dec2022            

=------------------------------------------------------------------------------=
   JOB DONE.
=------------------------------------------------------------------------------=
