
     Program PWSCF v.6.7MaX starts on  3Jan2023 at 22:54:31 

     This program is part of the open-source Quantum ESPRESSO suite
     for quantum simulation of materials; please cite
         "P. Giannozzi et al., J. Phys.:Condens. Matter 21 395502 (2009);
         "P. Giannozzi et al., J. Phys.:Condens. Matter 29 465901 (2017);
          URL http://www.quantum-espresso.org", 
     in publications or presentations arising from this work. More details at
     http://www.quantum-espresso.org/quote

     Parallel version (MPI), running on     1 processors

     MPI processes distributed on     1 nodes
     Reading input from ch2ch2ch2-gas-ensemble.in
Warning: card &CELL ignored
Warning: card / ignored

     Current dimensions of program PWSCF are:
     Max number of different atomic species (ntypx) = 10
     Max number of k-points (npk) =  40000
     Max angular momentum in pseudopotentials (lmaxx) =  3
     file C.pbe-n-kjpaw_psl.1.0.0.UPF: wavefunction(s)  2S 2P renormalized
     file H.pbe-kjpaw_psl.1.0.0.UPF: wavefunction(s)  1S renormalized

     **************************************************************************
     Initializing libbeef V0.1.2 with the BEEF-vdW functional.
     Citation: Wellendorff et al., PRB 85, 235149 (2012).
     **************************************************************************


     IMPORTANT: XC functional enforced from input :
     Exchange-correlation= BEEF-VDW
                           (   1   4  43  14   2   0   0)
     Any further DFT definition will be discarded
     Please, verify this is what you really want


     gamma-point specific algorithms are used

     Subspace diagonalization in iterative solution of the eigenvalue problem:
     a serial algorithm will be used

 
     G-vector sticks info
     --------------------
     sticks:   dense  smooth     PW     G-vecs:    dense   smooth      PW
     Sum       38039   38039   9503              5009083  5009083  626213
 


     bravais-lattice index     =            0
     lattice parameter (alat)  =      43.9936  a.u.
     unit-cell volume          =   79781.9174 (a.u.)^3
     number of atoms/cell      =            9
     number of atomic types    =            2
     number of electrons       =        18.00
     number of Kohn-Sham states=           13
     kinetic-energy cutoff     =      60.0000  Ry
     charge density cutoff     =     240.0000  Ry
     scf convergence threshold =      1.0E-06
     mixing beta               =       0.7000
     number of iterations used =            8  local-TF  mixing
     Exchange-correlation= BEEF-VDW
                           (   1   4  43  14   2   0   0)

     celldm(1)=  43.993605  celldm(2)=   0.000000  celldm(3)=   0.000000
     celldm(4)=   0.000000  celldm(5)=   0.000000  celldm(6)=   0.000000

     crystal axes: (cart. coord. in units of alat)
               a(1) = (   1.000000   0.000000   0.000000 )  
               a(2) = (   0.000000   1.029112   0.000000 )  
               a(3) = (   0.000000   0.000000   0.910485 )  

     reciprocal axes: (cart. coord. in units 2 pi/alat)
               b(1) = (  1.000000  0.000000  0.000000 )  
               b(2) = (  0.000000  0.971711  0.000000 )  
               b(3) = (  0.000000  0.000000  1.098315 )  


     PseudoPot. # 1 for C  read from file:
     /users/bkreitz1/quantum-espresso/potentials/C.pbe-n-kjpaw_psl.1.0.0.UPF
     MD5 check sum: a169b0ebad56f5ec0d79c4633f80bf22
     Pseudo is Projector augmented-wave + core cor, Zval =  4.0
     Generated using 'atomic' code by A. Dal Corso  v.6.7MaX
     Shape of augmentation charge: PSQ
     Using radial grid of 1073 points,  4 beta functions with: 
                l(1) =   0
                l(2) =   0
                l(3) =   1
                l(4) =   1
     Q(r) pseudized with 0 coefficients 


     PseudoPot. # 2 for H  read from file:
     /users/bkreitz1/quantum-espresso/potentials/H.pbe-kjpaw_psl.1.0.0.UPF
     MD5 check sum: ae98473e6dc62675f0d0baffdab24f65
     Pseudo is Projector augmented-wave, Zval =  1.0
     Generated using 'atomic' code by A. Dal Corso  v.6.7MaX
     Shape of augmentation charge: PSQ
     Using radial grid of  929 points,  2 beta functions with: 
                l(1) =   0
                l(2) =   0
     Q(r) pseudized with 0 coefficients 


     atomic species   valence    mass     pseudopotential
        C              4.00    12.01100     C ( 1.00)
        H              1.00     1.00800     H ( 1.00)

     No symmetry found



   Cartesian axes

     site n.     atom                  positions (alat units)
         1           C   tau(   1) = (   0.4768989   0.4839834   0.4055552  )
         2           C   tau(   2) = (   0.5219141   0.5097731   0.4325860  )
         3           C   tau(   3) = (   0.5236811   0.5653358   0.4616996  )
         4           H   tau(   4) = (   0.4811366   0.4407153   0.3894230  )
         5           H   tau(   5) = (   0.4354111   0.5047087   0.4013910  )
         6           H   tau(   6) = (   0.5623648   0.4865760   0.4312045  )
         7           H   tau(   7) = (   0.5124757   0.5209756   0.4809397  )
         8           H   tau(   8) = (   0.5644506   0.5816848   0.4760523  )
         9           H   tau(   9) = (   0.4861440   0.5925599   0.4607712  )

     number of k points=     1  Gaussian smearing, width (Ry)=  0.0050
                       cart. coord. in units 2pi/alat
        k(    1) = (   0.0000000   0.0000000   0.0000000), wk =   2.0000000

     Dense  grid:  2504542 G-vectors     FFT dimensions: ( 225, 225, 200)

     Estimated max dynamical RAM per process >       4.22 GB

     Initial potential from superposition of free atoms

     starting charge   17.99982, renormalised to   18.00000

     negative rho (up, down):  9.222E-03 0.000E+00


     %%%%%%%%%%%%%%%%%%%%%%%%%%%%%%%%%%%%%%%%%%%%%%%%%%%%%%%%%%%%%%%%%%%%%%%%
     %                                                                      %
     % You are using vdW-DF, which was implemented by the Thonhauser group. %
     % Please cite the following two papers that made this development      %
     % possible and the two reviews that describe the various versions:     %
     %                                                                      %
     %   T. Thonhauser et al., PRL 115, 136402 (2015).                      %
     %   T. Thonhauser et al., PRB 76, 125112 (2007).                       %
     %   K. Berland et al., Rep. Prog. Phys. 78, 066501 (2015).             %
     %   D.C. Langreth et al., J. Phys.: Condens. Matter 21, 084203 (2009). %
     %                                                                      %
     %                                                                      %
     % If you are calculating the stress with vdW-DF, please also cite:     %
     %                                                                      %
     %   R. Sabatini et al., J. Phys.: Condens. Matter 24, 424209 (2012).   %
     %                                                                      %
     %%%%%%%%%%%%%%%%%%%%%%%%%%%%%%%%%%%%%%%%%%%%%%%%%%%%%%%%%%%%%%%%%%%%%%%%


     Starting wfcs are   18 randomized atomic wfcs
     Checking if some PAW data can be deallocated... 

     total cpu time spent up to now is       72.7 secs

     Self-consistent Calculation

     iteration #  1     ecut=    60.00 Ry     beta= 0.70
     Davidson diagonalization with overlap
     ethr =  1.00E-02,  avg # of iterations =  5.0

     negative rho (up, down):  7.995E-03 0.000E+00

     total cpu time spent up to now is      115.2 secs

     total energy              =     -64.19156860 Ry
     estimated scf accuracy    <       1.09673690 Ry

     iteration #  2     ecut=    60.00 Ry     beta= 0.70
     Davidson diagonalization with overlap
     ethr =  6.09E-03,  avg # of iterations =  2.0

     negative rho (up, down):  5.360E-03 0.000E+00

     total cpu time spent up to now is      155.2 secs

     total energy              =     -64.07943747 Ry
     estimated scf accuracy    <       0.30577913 Ry

     iteration #  3     ecut=    60.00 Ry     beta= 0.70
     Davidson diagonalization with overlap
     ethr =  1.70E-03,  avg # of iterations =  5.0

     negative rho (up, down):  2.360E-03 0.000E+00

     total cpu time spent up to now is      197.5 secs

     total energy              =     -64.11476075 Ry
     estimated scf accuracy    <       0.04572762 Ry

     iteration #  4     ecut=    60.00 Ry     beta= 0.70
     Davidson diagonalization with overlap
     ethr =  2.54E-04,  avg # of iterations =  5.0

     negative rho (up, down):  2.957E-02 0.000E+00

     total cpu time spent up to now is      240.8 secs

     total energy              =     -64.10757584 Ry
     estimated scf accuracy    <       0.02436555 Ry

     iteration #  5     ecut=    60.00 Ry     beta= 0.70
     Davidson diagonalization with overlap
     ethr =  1.35E-04,  avg # of iterations =  5.0

     negative rho (up, down):  8.932E-02 0.000E+00

     total cpu time spent up to now is      283.9 secs

     total energy              =     -64.10597795 Ry
     estimated scf accuracy    <       0.01201165 Ry

     iteration #  6     ecut=    60.00 Ry     beta= 0.70
     Davidson diagonalization with overlap
     ethr =  6.67E-05,  avg # of iterations =  5.0

     negative rho (up, down):  1.501E-01 0.000E+00

     total cpu time spent up to now is      328.7 secs

     total energy              =     -64.10810183 Ry
     estimated scf accuracy    <       0.00623853 Ry

     iteration #  7     ecut=    60.00 Ry     beta= 0.70
     Davidson diagonalization with overlap
     ethr =  3.47E-05,  avg # of iterations =  5.0

     negative rho (up, down):  1.445E-01 0.000E+00

     total cpu time spent up to now is      372.3 secs

     total energy              =     -64.10688875 Ry
     estimated scf accuracy    <       0.00264821 Ry

     iteration #  8     ecut=    60.00 Ry     beta= 0.70
     Davidson diagonalization with overlap
     ethr =  1.47E-05,  avg # of iterations =  7.0

     negative rho (up, down):  1.097E-01 0.000E+00

     total cpu time spent up to now is      417.7 secs

     total energy              =     -64.10605286 Ry
     estimated scf accuracy    <       0.00122948 Ry

     iteration #  9     ecut=    60.00 Ry     beta= 0.70
     Davidson diagonalization with overlap
     ethr =  6.83E-06,  avg # of iterations =  5.0

     negative rho (up, down):  8.810E-02 0.000E+00

     total cpu time spent up to now is      461.3 secs

     total energy              =     -64.10546684 Ry
     estimated scf accuracy    <       0.00074985 Ry

     iteration # 10     ecut=    60.00 Ry     beta= 0.70
     Davidson diagonalization with overlap
     ethr =  4.17E-06,  avg # of iterations =  9.0

     negative rho (up, down):  6.157E-02 0.000E+00

     total cpu time spent up to now is      505.7 secs

     total energy              =     -64.10514407 Ry
     estimated scf accuracy    <       0.00021967 Ry

     iteration # 11     ecut=    60.00 Ry     beta= 0.70
     Davidson diagonalization with overlap
     c_bands:  1 eigenvalues not converged
     ethr =  1.22E-06,  avg # of iterations = 20.0

     negative rho (up, down):  4.725E-02 0.000E+00

     total cpu time spent up to now is      554.3 secs

     total energy              =     -64.10509454 Ry
     estimated scf accuracy    <       0.00010770 Ry

     iteration # 12     ecut=    60.00 Ry     beta= 0.70
     Davidson diagonalization with overlap
     c_bands:  2 eigenvalues not converged
     ethr =  5.98E-07,  avg # of iterations = 20.0

     negative rho (up, down):  3.165E-02 0.000E+00

     total cpu time spent up to now is      602.4 secs

     total energy              =     -64.10512372 Ry
     estimated scf accuracy    <       0.00008689 Ry

     iteration # 13     ecut=    60.00 Ry     beta= 0.70
     Davidson diagonalization with overlap
     ethr =  4.83E-07,  avg # of iterations =  8.0

     negative rho (up, down):  2.846E-02 0.000E+00

     total cpu time spent up to now is      647.5 secs

     total energy              =     -64.10513145 Ry
     estimated scf accuracy    <       0.00003184 Ry

     iteration # 14     ecut=    60.00 Ry     beta= 0.70
     Davidson diagonalization with overlap
     ethr =  1.77E-07,  avg # of iterations =  1.0

     negative rho (up, down):  2.119E-02 0.000E+00

     total cpu time spent up to now is      687.1 secs

     total energy              =     -64.10514764 Ry
     estimated scf accuracy    <       0.00001182 Ry

     iteration # 15     ecut=    60.00 Ry     beta= 0.70
     Davidson diagonalization with overlap
     c_bands:  1 eigenvalues not converged
     ethr =  6.56E-08,  avg # of iterations = 20.0

     negative rho (up, down):  1.988E-02 0.000E+00

     total cpu time spent up to now is      734.4 secs

     total energy              =     -64.10515244 Ry
     estimated scf accuracy    <       0.00000537 Ry

     iteration # 16     ecut=    60.00 Ry     beta= 0.70
     Davidson diagonalization with overlap
     ethr =  2.98E-08,  avg # of iterations =  2.0

     negative rho (up, down):  1.774E-02 0.000E+00

     total cpu time spent up to now is      774.9 secs

     total energy              =     -64.10515319 Ry
     estimated scf accuracy    <       0.00000171 Ry

     iteration # 17     ecut=    60.00 Ry     beta= 0.70
     Davidson diagonalization with overlap
     ethr =  9.51E-09,  avg # of iterations =  1.0

     negative rho (up, down):  1.713E-02 0.000E+00

     total cpu time spent up to now is      804.8 secs

     End of self-consistent calculation

          k = 0.0000 0.0000 0.0000 (313107 PWs)   bands (ev):

   -21.6394 -17.3895 -14.1629 -12.6322 -11.4729 -10.2256  -9.5347  -8.6099
    -4.9879  -1.1401  -0.9427  -0.4607  -0.3692

     the Fermi energy is    -2.9259 ev

!    total energy              =     -64.10515260 Ry

     total all-electron energy =      -237.397418 Ry
     estimated scf accuracy    <       0.00000041 Ry
     smearing contrib. (-TS)   =      -0.00000000 Ry
     internal energy E=F+TS    =     -64.10515260 Ry

     The total energy is F=E-TS. E is the sum of the following terms:
     one-electron contribution =    -179.07925678 Ry
     hartree contribution      =      91.67189056 Ry
     xc contribution           =     -19.00322939 Ry
     ewald contribution        =      61.93963729 Ry
     one-center paw contrib.   =     -19.63419429 Ry

     convergence has been achieved in  17 iterations

     negative rho (up, down):  1.713E-02 0.000E+00

     Forces acting on atoms (cartesian axes, Ry/au):

     atom    1 type  1   force =    -0.00030359    0.00050190   -0.00004108
     atom    2 type  1   force =     0.02473293   -0.03809823   -0.19158054
     atom    3 type  1   force =    -0.00084972    0.00083567    0.00081860
     atom    4 type  2   force =    -0.00017854    0.00033013    0.00063226
     atom    5 type  2   force =     0.00103542   -0.00072756    0.00063029
     atom    6 type  2   force =     0.00251691    0.00225130    0.01052043
     atom    7 type  2   force =    -0.02835155    0.03648135    0.17909038
     atom    8 type  2   force =     0.00083246   -0.00087182    0.00040658
     atom    9 type  2   force =     0.00056567   -0.00070274   -0.00047691

     Total force =     0.270378     Total SCF correction =     0.000168

     negative rho (up, down):  1.713E-02 0.000E+00

     negative rho (up, down):  1.713E-02 0.000E+00

     negative rho (up, down):  1.713E-02 0.000E+00

     negative rho (up, down):  1.713E-02 0.000E+00

     negative rho (up, down):  1.713E-02 0.000E+00

     negative rho (up, down):  1.713E-02 0.000E+00

     negative rho (up, down):  1.713E-02 0.000E+00

     negative rho (up, down):  1.713E-02 0.000E+00

     negative rho (up, down):  1.713E-02 0.000E+00

     negative rho (up, down):  1.713E-02 0.000E+00

     negative rho (up, down):  1.713E-02 0.000E+00

     negative rho (up, down):  1.713E-02 0.000E+00

     negative rho (up, down):  1.713E-02 0.000E+00

     negative rho (up, down):  1.713E-02 0.000E+00

     negative rho (up, down):  1.713E-02 0.000E+00

     negative rho (up, down):  1.713E-02 0.000E+00

     negative rho (up, down):  1.713E-02 0.000E+00

     negative rho (up, down):  1.713E-02 0.000E+00

     negative rho (up, down):  1.713E-02 0.000E+00

     negative rho (up, down):  1.713E-02 0.000E+00

     negative rho (up, down):  1.713E-02 0.000E+00

     negative rho (up, down):  1.713E-02 0.000E+00

     negative rho (up, down):  1.713E-02 0.000E+00

     negative rho (up, down):  1.713E-02 0.000E+00

     negative rho (up, down):  1.713E-02 0.000E+00

     negative rho (up, down):  1.713E-02 0.000E+00

     negative rho (up, down):  1.713E-02 0.000E+00

     negative rho (up, down):  1.713E-02 0.000E+00

     negative rho (up, down):  1.713E-02 0.000E+00

     negative rho (up, down):  1.713E-02 0.000E+00

     negative rho (up, down):  1.713E-02 0.000E+00

     negative rho (up, down):  1.713E-02 0.000E+00

     negative rho (up, down):  1.713E-02 0.000E+00

     negative rho (up, down):  1.713E-02 0.000E+00
 BEEFens 2000 ensemble energies
             -0.144410945950404E+01
             -0.446683494999256E-01
             -0.283371215214976E+00
              0.977813765164408E+00
             -0.463520229290754E+00
             -0.333364349787726E+00
             -0.106310064564306E+01
             -0.216666533930986E+01
             -0.721197850893714E+00
             -0.782197644073374E+00
             -0.798650883629353E+00
              0.138216468006659E+00
              0.833986145452053E-01
             -0.129003639561802E+00
              0.852272055645726E-01
              0.104568351682048E+01
             -0.423815144920522E+00
             -0.180425168200372E+00
              0.551231803026450E+00
             -0.243804394450122E+01
              0.123802615206414E+01
             -0.408799143767034E+00
             -0.143485436194014E+00
             -0.184991245337316E+00
              0.859512434952663E-01
             -0.902044667754485E-01
              0.194352715117898E+01
             -0.541690624039496E+00
             -0.161959944086259E+00
             -0.125353986927010E+01
              0.147420326444145E+01
             -0.524588646615798E-01
             -0.920026763749073E+00
              0.369293510760216E+00
             -0.610275770457998E-01
              0.675007718341890E+00
              0.527285051019888E-01
             -0.313473772869415E-01
              0.886510031990647E+00
             -0.217789794633572E+01
              0.122169881598819E+01
              0.268403917460645E+00
             -0.298873770539592E+00
             -0.634381703987641E+00
              0.274487985170504E+00
             -0.408022998026391E+00
              0.113825653044515E+01
              0.763208305607291E+00
             -0.388783563919796E+00
             -0.707661063640082E+00
             -0.695735005757614E+00
             -0.836950975063970E+00
              0.537200123902519E+00
             -0.115737480643564E+01
              0.367076064798336E+00
              0.134838844530166E+01
              0.168743863422466E+01
              0.697966389069877E+00
              0.354522871245495E+00
              0.740537349232259E+00
              0.202386386572006E+01
              0.335320125883166E+00
             -0.121315378394239E+01
             -0.194905574829331E+00
             -0.668362410553972E+00
              0.137477199658286E+01
             -0.156183096374918E+01
             -0.130450577951341E+01
             -0.779904269260100E+00
             -0.462464840087847E+00
             -0.826760748744020E+00
              0.611778533280967E+00
              0.301494481962289E+00
              0.355238395142695E+00
             -0.858734057849436E+00
             -0.787113031876187E+00
             -0.131377046707147E+01
              0.674052787141459E+00
             -0.767248048569330E+00
              0.732185655139000E+00
             -0.196749131439419E+00
             -0.617268530807133E+00
             -0.107490064510336E+01
             -0.325460680880436E+00
             -0.381160487329744E+00
             -0.304784422650181E+00
              0.859022172648580E+00
              0.175628743500491E+01
             -0.101064638615601E+01
             -0.174631592853931E+01
             -0.400577658146541E+00
              0.238812108472271E+01
             -0.124494057803826E+01
              0.676757047478653E+00
             -0.262780510682395E+00
             -0.128685035056745E+01
              0.603861197988190E+00
              0.634129715424034E+00
             -0.336129155868064E+00
              0.613797864064519E+00
             -0.538937597903381E+00
             -0.138486351825303E+01
              0.226204498986314E+01
              0.992771347512855E+00
              0.433969468203999E+00
              0.271974297860282E+00
              0.527418554024537E+00
              0.178997402686972E+01
             -0.588010772120030E+00
              0.566439028630192E-01
             -0.303849538944417E+01
              0.375743017909341E+00
             -0.145523163848487E+01
              0.274373301198467E+00
              0.477141460233760E+00
             -0.831637060158389E+00
             -0.109288297664864E+01
              0.407854497042788E-01
             -0.693416338958590E+00
              0.100217471308210E+01
             -0.988780297846454E+00
             -0.205617191576186E+00
             -0.849217268314220E+00
             -0.688619026141568E-01
              0.136373415901026E+00
              0.546165722644560E+00
             -0.688426397682207E-02
             -0.125878535410131E+00
              0.149957275733912E+01
              0.203452001209651E+01
              0.110526315182613E+01
              0.138747462675631E+01
             -0.287761932426214E+00
              0.167773884411918E+00
              0.112166347927362E+01
              0.159813890856250E+00
             -0.168328487109294E+01
             -0.100769324579496E+01
             -0.108058764908309E+01
             -0.648617088623153E+00
              0.565394022429773E+00
             -0.269187922015282E+01
             -0.262525491617156E+00
              0.103748647803780E+01
             -0.897158212586784E+00
             -0.624952100595198E+00
              0.131183075406157E+01
              0.107828544834061E+01
             -0.616498298659525E+00
              0.777565222948727E+00
             -0.566058404410826E+00
              0.839232012786393E+00
              0.144903094733292E+00
              0.209473007155929E+00
             -0.179515500580401E+01
             -0.104198428993505E+01
             -0.198442601888850E+00
             -0.926643161413316E-01
             -0.949577138206172E+00
              0.247167239461471E+01
             -0.224132288057509E+00
             -0.585428297906733E+00
              0.855017016336092E+00
             -0.969698957089189E+00
             -0.859385897267618E+00
              0.725677281613017E+00
              0.281754110361101E+00
              0.238282520474868E+00
              0.382305322956875E+00
             -0.237152545456732E+00
              0.190070417690806E+00
              0.127288358522428E+01
             -0.576049084729275E+00
              0.491862999796492E+00
              0.195659811059240E+01
              0.699010763338245E+00
             -0.730893474878869E-01
             -0.472253582121367E+00
              0.342923886151350E+01
             -0.579647613491642E+00
              0.883795372972262E+00
              0.707771665838368E+00
              0.576186710153838E+00
              0.204603538288626E+01
              0.101104751226394E+01
             -0.112572040160978E+00
              0.571002192706814E+00
              0.117175550912617E+01
              0.842929224182011E+00
             -0.136252221369457E+01
              0.208589537116262E+01
             -0.190037956819752E+01
             -0.211240966443891E+00
              0.122536071076184E+01
              0.417479793727951E+00
              0.122446468901771E+00
              0.579831071181014E+00
              0.332854975145284E+00
              0.708341081834183E+00
             -0.137147150214586E+01
              0.646936360407793E-01
             -0.511226135728544E+00
             -0.104458313173118E+00
             -0.707472797099165E-01
             -0.311467902240801E+00
             -0.143866153256388E+00
              0.183509005695353E+01
             -0.965134977892697E-01
             -0.628910208796168E+00
             -0.224325330983246E-01
              0.327452460560887E+00
             -0.142750023881474E+01
             -0.126637896692817E+01
             -0.735603441237354E+00
             -0.139752042095536E+01
             -0.428762940901130E+00
             -0.890819009515748E+00
              0.383870753000941E+00
              0.595309063272502E-01
             -0.290920454096647E+00
             -0.176139579564569E+00
              0.103697851551260E+00
             -0.262998648348575E+00
              0.144041983013348E+01
             -0.196028128083844E+01
             -0.286696326377280E+00
             -0.287174319747480E+00
              0.328612736680737E+00
              0.514865215081741E+00
             -0.113984879850264E+01
             -0.252006691213894E+00
              0.995355921329530E+00
             -0.425173032952433E+00
              0.307199410162940E+00
              0.725101575336990E+00
             -0.143238155963328E-01
              0.253879154153838E+01
             -0.201246901838962E+00
             -0.760771438728014E+00
             -0.175767146187447E-01
             -0.643107246587302E+00
              0.120363674217753E+01
             -0.110713420096736E+01
              0.328934422929546E+00
              0.105002885368778E+01
             -0.276814942261710E+00
              0.260189023666875E+01
              0.281071225730527E+01
             -0.157113383396873E+01
              0.127529713359696E+01
              0.549440804764046E+00
             -0.125018015136038E+01
              0.377985815379985E+00
              0.988217953133960E+00
              0.106043705160279E+01
              0.956519822669195E-01
              0.436592885374212E+00
              0.167417522294080E+01
             -0.514363215209872E+00
              0.194410263426322E+00
              0.144891603597770E+01
             -0.782608983074963E+00
             -0.571531006658581E+00
              0.134076722349872E+01
              0.695202718655282E+00
              0.168789431634329E+01
              0.779062764762444E+00
              0.329233617078705E+00
              0.543769697714700E+00
              0.954887210207473E+00
             -0.120143861297326E+01
              0.190227776375856E+00
              0.651971877370121E+00
              0.250529411415123E+00
              0.547993699188210E+00
             -0.139053808325189E+01
              0.699432109574284E+00
             -0.948137025316081E+00
             -0.699051400134445E+00
              0.456743039396179E+00
             -0.172276611798881E+00
              0.135824797735249E+01
             -0.266107822140953E+00
              0.651621434589782E+00
              0.659313279143717E+00
              0.170137838033632E+01
              0.114771979744869E+01
              0.114260025869631E+01
             -0.117275771635734E-01
             -0.270478306555884E+00
             -0.653128365149573E+00
              0.183786745304359E+01
              0.183267765083241E+01
              0.880739762442301E+00
             -0.643704693433259E+00
              0.108906913419052E+01
              0.301685139021659E-01
              0.345269376919899E+00
              0.155696997598106E+01
             -0.611657849796359E-01
             -0.230168721108511E+00
             -0.442113669480449E+00
             -0.140182789375081E+01
              0.213759832576935E+01
              0.116609987230571E+01
             -0.146478301908810E+01
             -0.495301305914796E+00
              0.532612459199945E+00
             -0.223290040073300E+00
              0.146251479083137E+01
              0.343464910758029E+00
              0.180101027583941E+01
              0.694540004110235E+00
             -0.481985786611462E+00
              0.375640617200907E+00
             -0.159404956009845E+00
             -0.526105946291187E+00
              0.364961580346463E+00
              0.337159353718025E+00
              0.202274627541010E+01
              0.167822795148141E+01
              0.128301420307388E+01
              0.146705107483968E+01
              0.158955781886116E+00
             -0.565282119129181E+00
              0.294837693214850E+00
             -0.728890945790884E+00
             -0.127662957168727E+01
             -0.123728052721370E+01
             -0.720297247034786E+00
             -0.239042311147385E+01
             -0.846543600920407E+00
             -0.192662944544397E+01
              0.468093490404438E+00
             -0.993294796487430E+00
              0.115557857321209E+01
             -0.220657790411491E+01
             -0.661167058860038E+00
              0.816363413018649E+00
              0.479207312391163E+00
             -0.202736958171746E+01
              0.114698973661644E+01
             -0.646890343044479E+00
              0.122470021799798E+01
             -0.581737713888509E+00
             -0.173316742917740E+01
              0.389007794615190E+00
             -0.145992928542409E+01
             -0.374736171487502E-01
             -0.471574552772047E-01
              0.900798916527104E+00
              0.279294158309204E+01
             -0.939775925541841E+00
             -0.835801065287688E+00
             -0.160561362207794E+00
             -0.152188969716406E+00
             -0.177500225772878E+01
             -0.124954762367609E+01
              0.109760893895837E+01
             -0.376678867355160E+00
              0.525448291693650E+00
             -0.108367559947447E+01
             -0.361694810846080E+00
             -0.923099623411555E+00
              0.106713774126639E+01
              0.252466641328786E+00
             -0.550237962005120E+00
             -0.416207627771101E+00
              0.302722193948897E+00
             -0.158096360884599E+00
              0.874745799850106E+00
             -0.581829312416669E+00
              0.279253652717854E+00
              0.756600490308786E+00
              0.255646037618789E+00
             -0.551332377614313E+00
              0.342669405966438E+01
              0.134526642667854E+01
              0.236615808159697E+00
              0.132411281002764E+00
             -0.134280205063013E+01
              0.746385400393745E+00
             -0.174014024248882E+01
             -0.777579313442281E+00
             -0.133500797018812E+01
             -0.409113767534970E+00
              0.133225428922787E+01
             -0.128379448868534E+01
              0.611463710716648E+00
             -0.108962434653328E+00
              0.226035691149944E-01
             -0.683058822292979E+00
             -0.915843025942973E+00
             -0.174498505889547E+00
             -0.690044149788345E+00
             -0.486543621902574E+00
             -0.888064313917977E+00
             -0.106639083240292E+00
             -0.700344639127552E+00
             -0.106935915046346E+01
              0.454244664879476E+00
             -0.248335207885726E+00
              0.538888911484891E+00
              0.179592941992294E+00
             -0.168212114453303E+01
             -0.111264501054856E+01
             -0.114872516772850E+01
              0.687256833497500E+00
             -0.163246094410419E+00
             -0.134698816961840E+01
              0.126794283871088E+01
             -0.949744497254440E+00
              0.132855002408525E+01
             -0.698142867763425E+00
             -0.107323547527533E+01
              0.531999358559046E+00
             -0.161590433738447E+01
             -0.683263309824089E+00
              0.128510211233223E+01
              0.464516064860902E+00
             -0.987118737239035E+00
              0.124274019002288E+01
             -0.361641190626116E+00
             -0.822119497765804E+00
             -0.655609006048707E+00
             -0.116674416420597E+01
              0.589379479228058E+00
             -0.193382469452548E+01
             -0.167611370708841E+01
             -0.172940659700366E+00
             -0.646255892334893E+00
             -0.135851828352614E+01
              0.170076202606039E+01
              0.307132891867879E+01
             -0.449576481316962E+00
             -0.911847996345454E-01
             -0.132677387372121E+01
              0.147320937425849E+01
              0.489433841441109E+00
             -0.473761304970424E+00
             -0.802077602056025E+00
              0.310800685141537E+00
             -0.131555364895088E+01
             -0.240624229423911E+00
             -0.189771179551394E+01
              0.754545942298451E+00
              0.242661998261858E+00
             -0.133177219934298E+00
             -0.282772856554740E+00
             -0.953077134650201E+00
             -0.306549784844870E+00
              0.305471204612764E+01
             -0.342154115888304E+00
             -0.109290068787875E+01
             -0.154631034401896E+01
              0.319576867195285E+00
             -0.861961208035037E+00
              0.229935470809322E+00
              0.744760805532026E+00
              0.115033268233117E+00
              0.814904021685825E+00
              0.420629807214423E+00
              0.130936112507505E+01
              0.534282303627163E+00
             -0.822479992240277E+00
              0.124011441523653E+01
              0.763200500898454E+00
              0.280374074500758E+00
              0.812433208762963E+00
             -0.722614148873658E+00
              0.158375794278599E+01
              0.597803595784285E+00
             -0.776266999749076E+00
             -0.125661845385039E+00
             -0.368163244254961E+00
              0.328630614380724E+00
             -0.550714843829830E+00
             -0.287184885772520E+00
             -0.283147084467362E+00
              0.179952220299482E+01
              0.129613778998978E+01
             -0.140332987274514E+01
             -0.192234567879630E+00
             -0.109599591234491E+01
             -0.274354527095756E+00
             -0.475035935748712E+00
              0.251791941155297E+00
             -0.648640660045013E-01
             -0.640652407955713E+00
              0.387053903980046E+00
             -0.209981392203833E+00
             -0.146643197692510E+00
              0.193953573432307E+01
              0.323124241529673E+00
             -0.187256847341667E+01
             -0.842916815238727E+00
              0.215254763373927E+01
              0.521988956084549E+00
             -0.188083732756954E+00
              0.244616952215573E+01
             -0.353945879886871E+00
             -0.164063550270971E+00
             -0.280966873606959E+00
              0.354270883823252E+00
              0.758909375043477E+00
              0.587083875411905E-01
              0.638110255955148E+00
             -0.239540152082604E+00
             -0.916319308120504E+00
             -0.876159697659542E+00
             -0.107003572791544E+01
              0.897615501651599E+00
              0.327506234355164E+00
              0.844435830361853E+00
              0.358703782806425E+00
              0.201030427582411E+01
              0.456670193465569E+00
             -0.171359156752854E+01
             -0.729911224092797E+00
              0.498710190757770E-01
             -0.621638614487392E+00
              0.142462226114197E+01
             -0.351781743215515E+00
              0.369673749523860E+00
              0.123983580328270E+01
             -0.181107881107481E+01
              0.327850945264146E+01
              0.437060612530623E+00
              0.542354086298122E+00
              0.853529474872742E+00
              0.676051208112334E-01
             -0.442404409613424E-01
              0.705588952624835E+00
             -0.785842220821357E+00
              0.194045843795721E+01
              0.169740609653088E+01
             -0.864283901728542E+00
              0.381849842287247E+00
              0.161247845138192E+01
             -0.475858814522714E+00
              0.472602785137943E+00
              0.710090096872868E+00
              0.914786353021758E+00
             -0.164760286077649E+01
             -0.119186335308164E+00
             -0.573758980683690E+00
             -0.136745488040575E+00
             -0.167522141545494E+00
              0.178145389400303E+00
             -0.272473446621266E+00
             -0.685084067146398E+00
              0.386519522430746E+00
              0.131292924868081E+00
              0.118587427561844E+01
             -0.104088161026170E+01
              0.104299670817922E+01
              0.113362285191021E+01
             -0.178648651284353E+00
              0.164150678602897E+01
             -0.150211022585328E+01
             -0.229815822635256E+01
             -0.189645958984405E+00
             -0.141239289448979E+00
             -0.138158658582554E-02
              0.174212120895092E+01
             -0.224762033944121E-01
              0.955278923598862E+00
              0.134179407088327E+01
              0.867102524768185E+00
             -0.136149244747294E+00
              0.130490957477820E+01
             -0.373191882564964E+00
             -0.877841281146488E+00
             -0.778866326559243E+00
              0.239283916842122E+00
              0.762099385062515E+00
             -0.562576844037510E-01
              0.736989448273929E+00
              0.136760414096031E-01
              0.122636618243610E+01
              0.348852038748620E+00
              0.178081610574885E+00
              0.260651439549129E-01
              0.645682002177955E+00
              0.914518033391865E+00
              0.325312634341070E+00
             -0.767415578747159E-01
             -0.121414708072010E+01
              0.670547770339354E+00
              0.463759129066498E+00
              0.727218450504339E+00
              0.666388284843364E+00
              0.817680495145785E+00
             -0.206331789385112E+00
              0.775495929428591E+00
             -0.673437812616434E+00
             -0.437553903606780E-01
             -0.116789648573003E+01
             -0.776805011461389E+00
              0.962778813574735E+00
             -0.196468622320515E+01
              0.528833355330030E+00
              0.308040928695931E+00
              0.193833877659372E+01
             -0.266763057078696E+00
              0.746320356821336E+00
             -0.259448742841235E+00
             -0.110354756429564E+01
             -0.145586376019581E+01
             -0.352614753530019E+00
             -0.203629357413992E+01
              0.176137785415840E+00
             -0.473013279486064E+00
              0.740242638568645E+00
              0.559110683412388E+00
             -0.649005291106156E+00
             -0.686702963632412E+00
              0.956663010175813E+00
             -0.127780063981504E+01
             -0.311788330032888E+00
             -0.358121270504766E+00
              0.601908699779248E+00
              0.128545740001451E+00
              0.813651752506508E-01
             -0.324034250920045E+00
              0.119329729562149E+01
             -0.135403203200139E+01
              0.148160560908927E+00
              0.134464441001748E+01
             -0.819007261977759E+00
              0.912107172968053E-01
              0.414559649617772E-01
             -0.144098882066015E+01
             -0.832815725142062E+00
             -0.300599513052139E-01
              0.699310666549596E+00
              0.776821397210156E+00
              0.110849332993487E+00
             -0.266893642711624E+00
              0.361364933906065E+00
             -0.884083698277072E+00
             -0.113054576004721E+00
             -0.118152023679992E+01
             -0.597046948409104E+00
              0.112869512351288E+01
             -0.682493923684810E+00
              0.157355125613128E+01
             -0.529871844127190E+00
              0.733559833223690E+00
              0.568043074787450E+00
             -0.133633603985741E+01
             -0.556938762421380E+00
              0.221959157119693E+00
             -0.940992843053828E+00
             -0.920349373380228E+00
             -0.199257492109088E+01
             -0.123084296053121E+01
             -0.109939164560528E+01
             -0.101134613008279E+01
             -0.367095738383227E-03
              0.557312879464482E+00
              0.276502041744143E+00
              0.622934097381826E+00
             -0.130733566366549E+01
              0.297066958228404E+00
              0.661318611764000E+00
             -0.153275936477225E+01
             -0.127090113687286E+01
             -0.876933133858234E+00
             -0.745178855675429E+00
              0.311894206980655E+00
             -0.698714279703339E-01
             -0.922997372098345E+00
              0.614849309019144E+00
             -0.521849584148839E+00
              0.116949855135811E+01
             -0.196420487382448E+01
              0.144061417418563E+01
             -0.272055338145262E+00
             -0.989176893437201E+00
             -0.607267075486447E+00
             -0.231668088230634E-01
              0.109367566177439E+01
             -0.154876486318984E+01
             -0.278899569413682E+00
             -0.369124622104045E+00
              0.909245351315870E+00
              0.179005632649995E+01
             -0.224765328472565E+01
              0.204024891746434E+01
              0.846821550133998E+00
             -0.169870151012341E+01
             -0.692710703983990E+00
              0.176349771135239E+01
              0.126677745731471E+01
             -0.475016508538287E+00
             -0.163567940022274E+00
              0.414572815051965E+00
              0.173906695604029E+01
             -0.133607184719773E+01
              0.278381293962835E+00
             -0.169945710994364E+00
              0.584083714160448E+00
             -0.156738199157488E+01
             -0.462256778702912E-01
             -0.587967565234665E+00
              0.108197147467958E+01
              0.855750325483746E+00
             -0.199972260147915E+01
             -0.105234332767781E+01
             -0.459428906755274E+00
             -0.985170150210195E+00
             -0.271941893042819E+00
             -0.385365164099293E+00
              0.101812737451183E+01
              0.959636507324473E+00
             -0.244759299417519E-01
             -0.977944383185628E+00
             -0.193590139968385E+01
              0.114174528058819E+01
             -0.101983588527181E+01
             -0.848368194692840E+00
              0.170212109644703E+00
             -0.836254172780853E+00
             -0.900325177826574E+00
             -0.702873632393753E+00
             -0.115776471412259E+01
             -0.527236481725921E+00
             -0.110041747561786E+01
              0.121943094692581E+01
              0.130201348582379E+01
             -0.251444749466437E+00
             -0.465042839800391E+00
              0.732354179951216E-01
              0.946910267769283E+00
             -0.188404475740820E+01
             -0.520461212564763E+00
              0.110406139855167E+01
              0.161689986742593E+01
             -0.217881223255988E+00
              0.226813622064775E+00
              0.117343160951584E+01
              0.344872615756579E+00
              0.524159975838296E-01
             -0.870114033185532E+00
              0.325061746964865E+00
             -0.720508160043687E+00
             -0.155984651389943E+00
             -0.472323590819038E+00
             -0.312886855864090E+00
              0.549578292701831E+00
              0.177055248361493E+01
             -0.170016985875617E+00
              0.399939632949642E-01
             -0.204133554508542E+01
             -0.402776410174976E+00
             -0.786749291655273E+00
             -0.371571674460105E-01
             -0.106337805948642E+01
              0.202135874618767E+01
              0.193909511173035E+01
              0.415662898850318E+00
             -0.534289312607100E+00
              0.415504717119923E+00
              0.444221465120299E+00
             -0.103415652382351E+01
             -0.215236979281180E+00
              0.453780450721124E+00
              0.273075627196298E+00
              0.113315589769293E+01
              0.865766609554694E+00
             -0.463433509129284E+00
              0.469910837768664E+00
             -0.217638092777222E+01
             -0.281438481687193E-01
              0.201050970861683E+01
              0.421536816827905E+00
             -0.648723671232148E-01
              0.596556375416584E+00
             -0.529665851128207E+00
              0.194229086551022E+01
             -0.461957083600955E+00
              0.172285644375646E+01
              0.856004609211802E+00
             -0.100433133759625E+01
              0.744501790849041E+00
             -0.624382704791839E+00
             -0.152254831192379E+01
             -0.180982654837536E+00
             -0.120069754191054E+01
             -0.116523737304095E+01
             -0.300708392662941E-01
              0.847534069039565E+00
             -0.320420481329552E+00
             -0.675457738328488E+00
              0.169949538567579E+00
             -0.145803873770446E+01
             -0.693564267316494E-01
             -0.195329148284381E+01
              0.115911070873489E+01
             -0.830008415606573E-01
             -0.109041824699112E+01
             -0.348957198775809E+00
              0.395931970509578E+00
             -0.855301430893662E+00
             -0.980028131428276E+00
              0.204269726620342E+01
             -0.626363047203234E+00
             -0.823684769189981E+00
              0.723419201071607E+00
             -0.499785821216154E+00
              0.128495512572573E+01
             -0.606280350243509E-01
              0.541318826024657E-01
              0.245531761951373E+01
             -0.185284711292224E+00
             -0.863340458057450E+00
             -0.106802367659640E+01
             -0.113983990594945E+01
             -0.839486504664970E+00
              0.647607951434042E+00
              0.701195364587607E+00
              0.628434720496688E+00
              0.165748903058527E+01
              0.121663824759103E+00
              0.521373154522297E+00
             -0.128423210246834E+01
              0.451738712596903E-01
             -0.347894243077823E+00
             -0.621835495256326E+00
             -0.160905208225941E+00
              0.731355235855844E+00
              0.848878739243577E+00
             -0.548512584664035E-01
              0.295912114795190E+00
              0.611331394386926E+00
              0.762287952310699E+00
             -0.525596857484809E+00
             -0.211339323630584E+00
              0.740868701796416E-02
             -0.580291902761626E+00
             -0.636572088437504E-01
             -0.897083956190639E+00
              0.176721303556323E+01
              0.137859019891174E+01
             -0.420828560741626E+00
              0.381852457744289E+00
             -0.134437216934304E+00
             -0.713210861009893E+00
              0.834229168140891E+00
             -0.209344490678506E+00
              0.823709392229517E+00
             -0.106620417029872E+01
              0.401565791926324E+00
             -0.177858254471904E+00
             -0.119775049350854E+01
             -0.541762833745953E+00
              0.542751123432891E+00
             -0.219325303606468E+01
              0.861215954546038E+00
              0.104058109784865E+01
             -0.226716727309341E+00
             -0.170367409723857E+00
             -0.901027204864580E-01
              0.593945831825774E+00
             -0.762657526172643E+00
              0.697038809883706E+00
              0.718048838388892E+00
             -0.201857622560785E+01
             -0.820625987499695E+00
              0.541851152940669E+00
             -0.274593545196473E+00
              0.110348711169563E+01
             -0.138586251355168E+01
             -0.236359097128211E+00
             -0.888329268699325E+00
             -0.291545828576479E+01
              0.176563768109578E+01
             -0.133232546471081E+01
             -0.150676794560665E+01
              0.146838217428214E+00
              0.288336257731563E+01
              0.157687737957147E+00
             -0.735910022650303E+00
             -0.325372445675747E-01
             -0.779768669977625E-01
             -0.190705857556044E+01
             -0.122863334311082E+01
              0.192269606617876E+01
             -0.277834191376013E+00
             -0.805767040937552E+00
              0.108717908702774E+01
             -0.728102397331977E+00
              0.741835495037707E+00
              0.108482769634860E+01
             -0.117877407909951E+01
             -0.624967781164463E+00
             -0.715106555658058E+00
             -0.389636283878788E+00
             -0.433481643745539E+00
             -0.418457968031410E+00
              0.443173270446474E+00
             -0.795921327659312E+00
              0.619651564347414E+00
              0.123088924943231E+01
             -0.139467868726551E+00
             -0.468114631604968E+00
              0.340362665729829E+00
              0.121577131220146E+01
              0.123212115540802E+01
              0.241505121530448E+00
             -0.240395361758906E+00
             -0.250514661611711E+00
             -0.118755317496326E+01
              0.908729391081132E+00
             -0.549480076266033E+00
              0.511980714189225E+00
             -0.296091484460504E+00
              0.579433228990895E+00
              0.381376136320291E+00
             -0.182171345047210E+01
             -0.566346640345918E+00
             -0.175500776651955E+01
             -0.894073454189426E+00
              0.890963349124450E-01
             -0.439887970557760E+00
              0.789958274479328E+00
             -0.641062415411477E+00
              0.844602856184615E-01
              0.161878115420865E+00
              0.156083418067359E+01
              0.817011484455727E+00
             -0.725670737900197E+00
             -0.543208983647774E-01
              0.342089281367938E+00
              0.829586270621450E+00
             -0.143001719966858E-01
              0.126687525911476E+01
              0.610216950087959E+00
              0.200278275280203E+01
              0.767014081274251E-01
              0.139045839097040E+01
             -0.616429365395915E+00
             -0.874635539133848E+00
              0.456891482481936E-01
              0.243011703685834E+00
              0.498520498044485E+00
             -0.470412940808391E+00
             -0.241940050602833E+00
              0.520403762407189E+00
             -0.106198157848483E+01
             -0.134032986037077E+01
              0.177321775962227E+01
             -0.143549103439195E+00
             -0.818179289163252E+00
             -0.114745279209663E+00
             -0.305978779808312E+00
              0.989573672701641E+00
              0.801398960762155E+00
             -0.461997300616005E+00
              0.694595194153980E-02
             -0.577467705596221E+00
             -0.796099075584879E+00
             -0.530382304415571E+00
             -0.217746407043421E+01
              0.375007199504651E-01
             -0.144355116576399E+01
             -0.131683899886130E+01
             -0.834864701463470E+00
              0.492644015977691E+00
             -0.859443828105867E+00
              0.534187115844537E+00
             -0.145376313854110E+01
              0.249034783052871E-02
             -0.940561716466779E+00
              0.183324400931311E+00
              0.171369984117549E+00
              0.799660763777330E+00
             -0.465749901513394E+00
             -0.419475761494645E+00
              0.721146765596614E+00
              0.133456874930465E+01
              0.722854755661464E+00
              0.236279220927006E+00
             -0.166875848049465E+01
             -0.356110954858896E+00
             -0.624568294973624E+00
             -0.137230580298389E+01
              0.966020403127176E+00
             -0.771984510232674E+00
             -0.167582265532593E+00
             -0.624363398488824E+00
             -0.220829139596225E+01
              0.125193834483201E+01
             -0.407931971090193E+00
              0.867392992885042E+00
             -0.165920250082405E+01
              0.146844917115815E+01
              0.140785973949242E+00
             -0.575910816498827E+00
              0.233709785311808E+00
             -0.441475171713574E+00
             -0.140132789004895E+01
              0.386750396004825E+00
              0.887164991206298E+00
             -0.317261830430464E-01
             -0.772674650311757E+00
             -0.361081375251311E+00
              0.466319636445485E+00
              0.823456116207671E+00
              0.137822918017933E+01
              0.504401032787110E+00
             -0.511115802219660E+00
              0.224482532148351E+01
              0.469021044055744E+00
              0.106156139194015E+01
             -0.377266191223088E+00
              0.657214777910848E+00
              0.534268896833220E+00
             -0.138368948956522E+01
             -0.497779261253454E+00
             -0.904159730489478E+00
             -0.934186867729093E+00
             -0.277155238334739E+00
             -0.184537608468840E+00
             -0.104084017263128E+01
             -0.247645232428632E+01
             -0.603334510673239E+00
              0.298593082545766E+00
              0.130916323577068E+00
              0.357719707055747E+00
              0.894249790582302E+00
              0.225992373703819E+00
              0.705224868747921E+00
             -0.964841259964703E+00
              0.963480013924361E+00
             -0.872584946661819E+00
             -0.149353565703369E+01
              0.451498743066551E+00
             -0.942014763726675E+00
             -0.883819360781340E+00
             -0.355864223575970E+01
             -0.164669170230771E+00
              0.188453006915938E+01
              0.914119277262136E+00
             -0.231933371614156E+00
             -0.232593053223249E+00
              0.998146535762906E+00
              0.142158781280712E+01
             -0.883202861674190E+00
             -0.282653637040850E+00
             -0.811112950949737E+00
             -0.742585606388781E+00
             -0.655121911725679E+00
              0.232588297797206E+00
              0.154808814090597E+01
             -0.145444122044804E+01
             -0.121683140678923E+01
              0.831285069764078E-01
             -0.325354502278596E+00
             -0.384087182215572E+00
             -0.198939328332669E+01
              0.140657715398129E+01
              0.442836936296228E+00
              0.208258916173498E+00
              0.116041663270001E+01
             -0.737388963278371E+00
              0.746827728877852E+00
              0.644353805792903E+00
              0.292328251499434E-01
             -0.181952444821695E+00
              0.187393740613438E+00
             -0.346218549684435E+00
              0.117589531970257E+01
             -0.877104212966977E+00
              0.103636691604060E+01
              0.205712435877849E+00
              0.384018000169108E+00
              0.442712226420012E+00
             -0.181912191618515E+01
              0.232823953932789E+00
             -0.149367809254354E+01
             -0.107383639949100E+01
             -0.106004274564017E+01
             -0.117688617936401E+01
              0.296930697174957E-03
              0.424684356772376E+00
              0.111429487801219E+01
              0.160182188850794E+00
              0.336786474867686E+00
             -0.154674082967008E+01
             -0.616295209727346E+00
              0.729304123445054E+00
             -0.799802336834787E-01
             -0.773089876840016E-01
             -0.219410910476663E+00
              0.790903937916976E+00
             -0.202534885648605E+01
              0.291364383935887E+00
              0.459499971078030E+00
              0.869673416428525E+00
              0.818077575928771E+00
             -0.126212832160923E+01
              0.364151635574119E+00
              0.147534383218551E+00
              0.157267762437746E+00
              0.137740379326754E+00
             -0.441647074176696E+00
             -0.966731487038982E+00
              0.400287794643184E+00
              0.129650819364433E+01
             -0.221633934140506E-01
              0.307197264865952E+00
              0.281928534782404E+00
             -0.693256872686774E+00
             -0.735759271649242E+00
             -0.274377283395278E+01
             -0.843785500930260E+00
             -0.131683234947428E+01
             -0.138507202274056E+00
             -0.152538483173930E+01
              0.168520974182403E+01
             -0.755404367729405E+00
             -0.123452574628427E+01
             -0.350075690929396E+01
              0.150153877315539E+01
              0.331615600815593E+00
              0.235212233492816E+00
             -0.136564666860879E+01
              0.983785908714694E-01
             -0.378854078364987E+00
             -0.700456979988255E+00
              0.182450854493904E+00
              0.727790057368373E+00
              0.108394898093665E+00
             -0.465912865267736E+00
              0.918540330883655E-01
              0.349025553647015E-01
              0.234804551036975E+00
             -0.149652193863348E+01
              0.164863363303534E+01
             -0.925334127649187E+00
             -0.595001415401433E+00
             -0.115755145844109E+01
             -0.245689038912396E+01
              0.998244997103472E-01
             -0.129326289132044E+01
             -0.404432998985156E+00
              0.687989983709537E+00
             -0.604098349460777E+00
             -0.260616528738936E+00
             -0.293149539465404E+00
             -0.436671748627276E+00
              0.739310075014088E-01
              0.115495975268867E+01
             -0.112130176242861E+01
              0.232314318297548E+01
             -0.572147849359605E+00
              0.724900365381542E+00
             -0.402987364648407E+00
              0.261299494799917E+00
             -0.265764277275514E+00
              0.994310959521474E+00
              0.139260692599326E+01
              0.403711251914261E+00
              0.971189401985667E+00
             -0.653904112057668E+00
             -0.172321671453257E+00
             -0.521605374483809E+00
              0.142134533408647E+01
              0.122400408077351E+01
              0.892169983234602E+00
             -0.286501151482963E+00
             -0.569039167015586E+00
              0.538968632886841E+00
             -0.660036993687047E+00
             -0.327541242502718E+00
             -0.129649247735454E+00
             -0.793753139074336E+00
              0.108870771197512E+01
             -0.249233856157331E+00
              0.796750232633690E+00
              0.502477458689890E+00
              0.337743429034916E+00
             -0.750128971251065E+00
              0.547311514999365E+00
             -0.303772796171421E+00
             -0.159623986996772E+00
             -0.196636198416202E-01
             -0.107054099221847E+01
              0.173028453985919E+01
             -0.590142086626135E+00
             -0.895208952762516E-03
              0.550941594681718E+00
              0.477541395476402E+00
              0.173615656738593E+01
             -0.479899673468934E+00
              0.166969058779121E+01
              0.148388290535188E+01
             -0.207028659068325E+01
              0.152973978160198E+00
             -0.407851361681897E+00
              0.271588925783876E+00
              0.104602533495004E+00
              0.477536621368039E+00
              0.142727018492770E+01
              0.223097962026533E+01
             -0.162976695588787E+01
              0.169300711369425E+01
             -0.224729865913817E+01
             -0.193721519437703E+01
             -0.331186787143023E+00
              0.224354746894404E-01
              0.176023496346317E+01
              0.722415572866465E+00
             -0.293140980347436E+00
             -0.184974779321315E+01
              0.149346437051600E+01
             -0.920605414570026E+00
              0.417983770156063E-01
             -0.124555227498079E+00
              0.289989780475746E+01
             -0.494447481061650E+00
             -0.234689303227096E+01
              0.672996131319145E+00
             -0.361756293449650E+01
              0.290504757024983E+00
             -0.858459984232366E+00
             -0.396201076206109E+00
             -0.573440586640796E+00
             -0.132665745096634E+01
              0.809574234023221E+00
             -0.816585507670982E+00
             -0.309260440137855E+00
             -0.168653176850860E+01
             -0.893444345755547E-01
             -0.121125529602492E+01
             -0.172710160386128E+01
             -0.236109131208241E+01
              0.187997153228094E+00
             -0.835813769788179E+00
              0.235582169007291E+00
             -0.313912086456140E+00
             -0.186149550876634E+01
             -0.144040743306930E+01
             -0.127455293064804E+01
             -0.131500850998953E+01
              0.116814102143037E+01
              0.121909108263824E+00
             -0.110570211458674E+01
             -0.560133425217685E+00
             -0.621818509425317E+00
              0.935427538998725E+00
             -0.668800534014019E+00
             -0.977765888102056E-01
             -0.715625338061102E+00
             -0.877783291321093E+00
             -0.933265622286435E+00
              0.901944529597746E+00
             -0.281016388216885E+00
             -0.205749220669933E+01
              0.172474980185562E+01
              0.100955746400673E+01
              0.623261297950588E-01
             -0.182525554911907E+01
             -0.165330762044148E+01
              0.113169276185552E+00
              0.129947195614202E-01
             -0.761130038185925E+00
             -0.966165616464017E+00
              0.669082900135891E+00
             -0.108435932508476E+00
              0.609323068923054E+00
              0.106515761448130E+01
              0.779859172679257E+00
              0.547277334210881E+00
              0.483807652387788E+00
             -0.497013445839109E+00
             -0.345855205407851E+00
             -0.420209552989218E+00
             -0.855122047024718E+00
             -0.103897720650655E+01
             -0.134672975454266E+01
             -0.796506156889037E+00
             -0.279953006957284E+00
             -0.165454914466840E+01
             -0.386960460897933E+00
              0.813771097316737E+00
             -0.189831539272242E+01
              0.829715616858749E+00
              0.669208265527446E+00
             -0.161331478530603E+01
             -0.123790632514206E+01
             -0.515427570697875E+00
              0.270836964724668E+00
             -0.925041063862087E+00
              0.169089621436158E+01
              0.148672431478495E+01
             -0.172959141054462E+01
              0.916056899176191E+00
              0.806275658756494E+00
              0.234990835534171E+00
              0.412936377119689E+00
             -0.954907463288204E+00
             -0.350116890618600E+00
              0.152520130544319E+00
              0.461288524955894E+00
              0.918184544889350E+00
             -0.120486398897833E+01
             -0.257113899459810E+00
              0.358619493725622E+00
              0.238002362282558E+00
             -0.768281029845133E+00
              0.418678328720870E+00
             -0.551963169224033E+00
             -0.402709525460966E+00
             -0.238387549845660E-01
             -0.138100725342281E+01
             -0.158847400461544E-01
             -0.189021048189565E+00
             -0.339907334586991E+00
              0.362869309991553E+00
             -0.117255171614106E+01
              0.131535427916564E+01
             -0.482033757446879E+00
             -0.300121921172140E+01
             -0.192230350379809E+01
              0.775955860053210E+00
             -0.941039169269747E+00
             -0.478962727137866E+00
             -0.516968727348404E+00
             -0.438365810401718E+00
             -0.231999270603757E+01
             -0.166903436690884E-01
             -0.138201459196330E+01
             -0.767741364108916E+00
              0.428640213754489E+00
              0.178253790916616E+01
              0.111837499139106E+00
              0.626481679213686E-01
              0.134278990449609E+01
             -0.131093690133500E+01
              0.624490398519284E+00
              0.125814552258107E+00
             -0.118907490536262E+01
             -0.693296831055887E+00
              0.430903103626441E+00
              0.702795718225917E-01
              0.386834446452283E+00
              0.300045025905681E+00
             -0.522143217603963E+00
             -0.752319981005449E+00
             -0.112003481183748E+01
              0.111739585716402E+01
             -0.152272595848241E+01
             -0.113391929309113E+01
              0.324479231856122E+00
             -0.187239886674183E+01
              0.532828314421670E+00
              0.134079479036305E+01
             -0.264514334144373E+00
              0.450066640938307E+00
             -0.761185223691289E+00
             -0.497219097992761E+00
              0.236127740881599E+00
              0.810260806024701E+00
             -0.815639335303006E+00
              0.502514119581175E+00
             -0.319607066683879E+00
              0.172016726190663E+00
              0.416875755841277E+00
              0.204301301327672E+00
             -0.286521940704542E+00
             -0.236319957739193E-01
              0.253273048600654E+00
              0.633916207435791E+00
             -0.158258718802592E+01
             -0.402940693784011E-01
              0.117435048508844E+01
             -0.196130790616668E+01
              0.736676075498287E+00
             -0.254162371746768E+01
             -0.257316490079870E+00
             -0.318511898628049E+00
             -0.644876531031393E-01
             -0.294073798619305E+00
             -0.613375591521084E+00
             -0.247467248257234E+00
              0.259915044010435E+00
             -0.582830756316941E+00
              0.241177464646542E+00
              0.203168957506008E+01
             -0.127086069750972E+01
             -0.561811788021203E+00
              0.941348100867320E+00
              0.465488274249803E+00
              0.956097673350855E+00
              0.458755623904139E+00
              0.360378866534747E+00
             -0.316310088621528E+00
             -0.109539866436662E+01
             -0.100564665519668E+01
             -0.782414263631618E+00
              0.132893346404852E+00
             -0.945225091046211E+00
             -0.262398355460604E+00
              0.134500005916925E+00
              0.547262503113469E+00
             -0.149362114485292E+00
              0.132461192668840E+01
             -0.147763360521800E+01
             -0.250998974787437E-01
             -0.166595085194837E+00
              0.703328600177388E+00
             -0.950249453520596E+00
             -0.618295177718331E+00
              0.283402431823795E+00
              0.100452558745961E+01
              0.169557734450729E+01
              0.666991562863568E+00
              0.103144690974182E+01
             -0.548742411073151E+00
              0.141701359182794E+01
              0.141189474903720E+01
             -0.173357087861561E-01
              0.669889590737486E+00
              0.836478743948160E+00
             -0.454652066758984E+00
              0.327594815213844E+00
              0.146523403682062E+01
             -0.470115047646900E+00
             -0.136722702562917E+00
             -0.139401130927074E+01
              0.488693001041438E+00
             -0.344841022188039E+00
              0.485787682528759E+00
              0.270314627093633E-01
             -0.874962211915402E+00
              0.101758243664055E+01
              0.874837644716994E+00
             -0.706386379232518E+00
              0.381755916547188E+00
             -0.134192454993066E+01
             -0.121829970284152E+01
              0.556643733660838E+00
             -0.152256155567136E+01
             -0.774025012962945E+00
              0.130683780737666E-01
              0.192405240171713E+01
             -0.506286770712745E+00
             -0.251026669864782E+00
             -0.459404242255155E+00
              0.250209625455834E+01
              0.410639360599819E+00
             -0.950328651848431E+00
              0.159007914589239E+01
              0.139369537986609E+01
              0.731020705773766E+00
              0.178630824898442E+01
              0.195620952932354E+01
             -0.705362749608178E-01
             -0.640171846526802E+00
             -0.553650225259112E+00
              0.619989869769347E+00
              0.870953616132315E+00
             -0.164236662310660E+00
             -0.541654045880815E+00
             -0.127980230531644E+01
             -0.450746321900721E+00
             -0.103773076002366E+01
              0.756167188916060E+00
              0.398280218162130E+00
              0.135036019449787E+01
              0.309786306309555E+00
             -0.515734844489630E+00
             -0.193053303300563E+00
              0.889058718135383E+00
              0.233979379845476E+00
              0.138115430726163E+01
              0.123484848750484E+01
             -0.183857151847667E+00
             -0.203836876687594E+00
             -0.228629315639756E+01
              0.109907075886498E+01
             -0.204928183619835E-02
              0.130253996630408E+01
             -0.578283443749833E+00
             -0.148101738499346E+01
              0.428800897923493E+00
              0.162636691950135E+01
             -0.562690088978555E+00
              0.146729141788775E+01
             -0.160221327661765E+01
             -0.584924028356143E+00
             -0.192290332435565E+01
              0.351832965422624E+00
              0.104354928383898E+00
              0.194399431736825E+00
             -0.138961091149913E+01
              0.208380452351308E+01
              0.120079894268384E+01
              0.134604112646436E+00
             -0.122760049746381E+01
              0.459651244882534E+00
             -0.401672860769289E+00
             -0.337249979973654E+00
             -0.611459533650123E+00
              0.369374122852721E+00
             -0.391125095385391E+00
             -0.407998452062774E+00
              0.527211233282186E+00
              0.522935790715188E+00
             -0.200840042738518E+01
              0.443395675789509E+00
              0.147573035175717E+01
              0.946292592042285E+00
             -0.291072401778232E+00
             -0.488047183048319E-01
             -0.821985533700940E+00
              0.124207975118578E+01
              0.194614988123094E+00
             -0.649154279092325E-01
             -0.134818818310949E+00
              0.241745118751268E+01
             -0.168827187002467E+00
              0.483606999258329E+00
              0.166937179223714E+01
              0.214392280911490E+01
              0.132192661278245E+01
              0.869672328899146E+00
             -0.143447384286085E+01
             -0.103756133259578E+01
              0.804913247489001E+00
              0.120697655493382E+00
              0.685455175905203E+00
              0.280181986826573E+00
              0.145968324066184E+01
             -0.177811930867755E+01
             -0.108714239036755E+01
             -0.260953316855069E+00
             -0.194039278442045E+01
              0.432647619360933E+00
              0.104124264784656E+01
              0.699725303732990E-02
             -0.457266457961095E+00
              0.467181922365898E+00
              0.299843601428673E+01
              0.712808522470583E+00
              0.392293553252349E+00
             -0.104617107971554E+01
             -0.128401598007375E+01
             -0.303013072233347E+00
              0.643347767057666E+00
             -0.129769838543881E+00
              0.594444727022672E+00
              0.792735544139239E+00
             -0.135629103986224E+01
              0.602775869254144E+00
              0.734108385906277E+00
              0.124216836417547E+01
             -0.227411528380824E+00
              0.124094546392511E+00
             -0.152607471850916E+00
             -0.979179536585283E+00
             -0.164175143411051E+01
              0.167501005309763E+01
             -0.228506184997359E+00
             -0.117447442550434E+01
              0.195247851585330E+00
             -0.683627719695347E+00
              0.190013521441656E+01
             -0.510309116887171E+00
             -0.852649845468750E+00
              0.841265362574802E+00
             -0.352445442175881E+00
              0.103462961784841E+01
              0.747258917476872E-01
              0.205074301693005E+01
              0.118015732664534E+01
              0.289957320253105E+00
             -0.880661716747565E+00
              0.642668937976180E+00
             -0.120509607264510E+01
             -0.955674783538378E-01
              0.143682688699915E+01
             -0.568014300766669E+00
             -0.955462762970607E+00
             -0.514464308519496E+00
              0.114356846164076E+01
              0.247807435190117E+00
             -0.180480721006989E+01
              0.763632291586844E+00
              0.130623094692730E+00
              0.253849327970173E+00
             -0.108164587788454E+01
              0.221779946225652E+00
              0.760744681738874E+00
              0.100716938432560E+01
              0.146507243701866E+01
              0.788474169757431E+00
              0.163505727040015E+00
             -0.124287158046086E+01
             -0.936351445221448E+00
             -0.141947400231349E+01
             -0.331316687442326E+00
              0.767747698303697E+00
             -0.250817295087247E-03
              0.115769765700216E+01
             -0.717889420580343E+00
              0.379507754190691E+00
             -0.532176856428173E+00
             -0.599237882206714E+00
              0.131029581425112E+01
              0.114680992496427E+00
              0.139985954176675E+01
              0.124623793922794E+00
              0.431220392544718E+00
             -0.353782300238537E+00
              0.132760244272366E+01
             -0.377107346039092E+00
              0.373603638374348E-02
             -0.174087360581733E+01
             -0.154232721019220E+00
              0.153916791424669E+01
              0.142153007475767E+01
              0.566332475316791E+00
             -0.348313683671410E+00
              0.127554082728583E+00
             -0.537488006847755E+00
             -0.450911560576330E+00
              0.200707139121462E+01
              0.180039717998817E+00
             -0.651769047353731E+00
             -0.235712254866445E+01
             -0.930247879259276E+00
             -0.846847939694272E+00
             -0.134602438077286E+01
             -0.133367067463982E+01
             -0.156611540249448E+01
             -0.100129316705196E+01
             -0.611616693824782E+00
             -0.106568551347831E+01
              0.982231197242304E+00
             -0.378387427746096E+00
             -0.184301764002677E+01
              0.926340640661889E+00
             -0.755611101668687E+00
             -0.175504596828115E+01
              0.224002850752287E+01
             -0.572620614185753E+00
              0.328190550897205E+00
              0.834967946108555E+00
              0.319751438564546E+00
              0.591892976496057E+00
              0.259014869359557E-01
              0.327437519145372E-01
             -0.294483230044325E+00
             -0.164555664616145E+01
              0.243389544956688E+00
             -0.265019770512815E+01
              0.162691638487786E+01
             -0.899573124219947E+00
             -0.431677753598652E+00
             -0.467030375090641E+00
              0.505900415851916E+00
             -0.353861571030244E+00
              0.622315741359490E+00
             -0.130800564453943E+01
              0.795305061742681E+00
              0.965071350628782E+00
              0.182277435278202E+00
              0.211832498603793E+00
              0.480713527475666E+00
              0.230487936893123E+00
              0.657544876152195E+00
             -0.835700007547358E-01
             -0.168480801185580E+01
              0.210779927470972E+00
             -0.770154967667900E+00
             -0.648313632263031E-01
              0.126560352662964E+01
             -0.177242710963064E+01
              0.541039190025216E-01
              0.828181594002606E-01
              0.215888594896629E+00
              0.672146790171726E+00
             -0.277615663412066E+00
              0.187224541394054E+01
              0.785767609389037E+00
             -0.312579390335721E+00
             -0.179273459762730E+00
              0.148142497898936E+00
              0.174124070391295E+01
             -0.108564030040406E+01
             -0.224397879371189E+01
              0.652335749049657E+00
             -0.192635433546438E+00
             -0.357216308816237E+00
              0.430968575931786E+00
              0.167276361789075E+01
              0.917316154272563E+00
             -0.372191894030760E+00
             -0.121664351316033E+01
             -0.296430127951383E+00
              0.610886091466335E+00
             -0.406654126177820E+00
             -0.170224300014073E+01
             -0.226889361439777E+00
             -0.218790422227885E+01
             -0.115770462458930E+01
              0.196166525116263E+01
             -0.116737998382193E+01
             -0.160017283942157E+01
             -0.118216018560451E+01
             -0.899068302409948E+00
              0.767852699681179E+00
              0.190312797520601E+01
             -0.234920330338825E+00
              0.594261860288682E+00
             -0.461777865828173E+00
             -0.152061226403035E+01
              0.116217559678045E+01
             -0.109069231932044E+01
              0.548124675719255E+00
              0.620265723608271E+00
             -0.364554108224688E+00
              0.804000605132971E+00
              0.845149323664615E+00
              0.271746269149177E+01
             -0.212455656384234E+00
             -0.129492983016971E+01
             -0.148333536665344E+01
             -0.435679335125753E+00
             -0.955352927931936E+00
              0.205993786991633E+01
             -0.101388484747818E+01
              0.226591265771814E+00
              0.414370855339019E-01
             -0.424625104327486E+00
             -0.193698182027921E+01
             -0.149214487528611E+00
              0.224479375451553E+01
              0.507985245530017E+00
              0.162747778825510E+00
             -0.133346539745172E+01
             -0.120896360174182E+01
             -0.415389763875802E+00
              0.101048775753517E+01
             -0.600560937610710E+00
              0.223938213538902E+01
             -0.107902975202079E+01
              0.427042487770100E+00
             -0.281536051262767E+00
             -0.137741697964261E+01
              0.159689637381804E+00
             -0.127410399011764E+01
             -0.165104788653434E+01
              0.255895212987905E+00
              0.305057688738084E-01
              0.109268121796136E+01
              0.609391640158079E+00
             -0.790987343480827E+00
              0.485552211837991E+00
             -0.199736623943053E+01
             -0.104520338621510E+01
              0.208045392316530E+01
              0.579030268814802E-01
             -0.101910708217087E+00
             -0.539965559066323E+00
             -0.610061754018787E-02
             -0.277536893502431E+00
              0.207415232991915E+01
              0.927123728790151E+00
             -0.173093631468728E+00
              0.177140573983330E-01
             -0.844356291824244E+00
             -0.264269232880917E+00
             -0.137272612764201E+01
              0.116123444741535E+01
              0.146208932477342E+00
              0.163987966230209E+00
              0.432502015602850E+00
             -0.318216828104413E+00
             -0.515396555397201E+00
              0.219747807029077E+00
             -0.250047108798115E+01
             -0.231922772595725E+00
             -0.224900392569237E+00
             -0.134613305314881E+00
              0.106846691950958E+01
              0.145544566136430E+01
              0.404578709947701E+00
             -0.208011858321254E+01
              0.142710323808249E+01
             -0.542166784102557E+00
             -0.826799422623576E+00
             -0.195251119171917E+01
             -0.594397092504100E+00
              0.142711866402188E+01
              0.761411214099937E+00
              0.374880534030932E+00
              0.791192971746603E+00
             -0.124143539917311E+01
             -0.110504396347899E+01
              0.140936403957343E+01
              0.934222003350420E+00
              0.104259191260498E+01
              0.219777407313477E+00
              0.246383723677084E+00
              0.118180769812852E+01
              0.220613803457119E+01
             -0.391220975863630E+00
              0.908528732362736E+00
             -0.685467210185646E+00
             -0.976992856287931E+00
             -0.781353532957731E+00
             -0.761542434933333E+00
             -0.313069776984071E+00
             -0.106329101468001E+01
             -0.413359278266055E+00
             -0.287985485024356E+01
              0.699771557212740E+00
              0.651216359747057E+00
             -0.758550663864461E-01
             -0.817241472136052E+00
             -0.395726182539332E+00
             -0.127193678669698E+01
              0.121411740549791E+00
              0.176581247289801E+01
             -0.415739262414032E+00
             -0.429299717524241E+00
              0.432444422517460E+00
             -0.114457601981323E+01
              0.191665597019347E+01
              0.340500425366166E+00
              0.123841751028362E+00
              0.115815037389889E+01
             -0.154204871733042E+00
              0.132023415713035E+01
              0.454403768828679E+00
             -0.304084776731188E-01
              0.307035098575843E+00
             -0.237976194114031E+00
              0.149559631860105E+01
              0.161717868181359E+00
              0.488926911672581E+00
             -0.205340329863532E+00
              0.229846944614636E+00
             -0.210203897320806E+01
             -0.776730236730016E+00
             -0.111585225339506E+01
              0.111365224333598E+01
             -0.804644626940962E+00
             -0.122924421496793E+01
              0.133815063489846E+01
             -0.305301777829874E+00
              0.926429628232792E+00
             -0.198447226593595E+01
              0.382374826846482E+00
              0.807706960636994E-01
              0.160953988582925E+00
             -0.313236062561865E+00
             -0.150737087520442E+00
              0.111519604982694E+01
              0.603353146982446E-01
             -0.119665974601458E+01
             -0.498255146798876E+00
              0.403409530750563E+00
             -0.258353678831812E+01
             -0.193531638397086E+01
              0.166517555555297E-01
              0.377490838096429E+00
             -0.115936245844134E+01
              0.359675608090368E-01
              0.229462431864909E+01
              0.636914701221544E+00
             -0.120666661494161E+01
              0.169742599085551E+00
             -0.238573672078589E+00
              0.299606146757036E+00
             -0.812893078709930E+00
              0.531073808042528E+00
              0.520210384268490E+00
             -0.193365141054172E+00
              0.252221804566216E+01
             -0.809904756617774E-01
             -0.683364114979785E+00
              0.710562973017451E+00
              0.964818917045154E+00
             -0.708036716387564E+00
             -0.158573873845191E-01
              0.220319645112823E+01
             -0.224607401623000E-01
              0.116267400784733E+01
              0.369824965040772E+00
             -0.143248269423192E+00
             -0.333132033498455E+00
              0.105139854092513E+01
             -0.133146881048616E+01
             -0.386196654171371E-01
             -0.458420920954990E+00
             -0.892477572367929E+00
              0.251044714838124E+00
              0.567896698741830E+00
             -0.471074539428304E-01
             -0.378665609449111E-01
             -0.940403613491974E+00
              0.329709322159497E+00
             -0.315580126233117E-01
             -0.478452925888724E+00
             -0.443306246796088E+00
              0.361413564199377E+00
             -0.132421620792122E-02
             -0.869262240861819E+00
             -0.240942117085149E+01
              0.150543625068269E+00
              0.315689834577374E+00
             -0.108717293519175E+01
             -0.571157564614802E+00
              0.184400514170498E+01
              0.304295360642584E+00
              0.100862023309434E+01
              0.254683289365077E+00
              0.894060715564811E+00
              0.458005914864312E-01
             -0.890239904938775E+00
             -0.294132162629859E+00
              0.116822785454172E+00
              0.708552520885781E+00
              0.164867831857488E+01
              0.110381231799133E+01
              0.691588631182576E-01
              0.255755113003630E+00
              0.136401705877592E+01
              0.635156536664072E+00
             -0.154577185847314E+01
             -0.620219116590938E+00
              0.239505244407010E+00
              0.226716312358137E+00
              0.566169849222879E+00
             -0.114087450128348E+01
              0.881568977473979E-01
              0.935601028659875E+00
              0.108974009320194E+01
             -0.943117356756050E+00
              0.844009694791215E-01
             -0.630427436641430E-01
             -0.477612460575788E+00
             -0.552114168917932E+00
             -0.249722376492564E+00
             -0.306068757466296E+00
              0.258878169819917E+00
              0.943701372916114E+00
             -0.729518856697331E+00
              0.182036872691614E+01
              0.743663462860658E+00
              0.591718309725572E+00
              0.848553604399795E+00
              0.537590073308253E+00
              0.808865165293144E+00
              0.124337373868873E+01
             -0.106231659236554E+01
              0.140826944544446E+01
             -0.256121290462811E+01
              0.701742786871158E+00
             -0.234277020922342E+01
              0.179667294474460E+01
              0.175745791223790E+01
             -0.181786935399670E+00
             -0.103934513930060E+01
             -0.971646506933036E+00
             -0.119928802440460E+01
             -0.148473844637166E+01
              0.122191462155068E+01
              0.957884880645482E+00
              0.543558653276270E+00
              0.558394828688176E+00
              0.102262164647963E+01
             -0.922063888320368E+00
             -0.316411483381218E+00
              0.119283812077824E+01
             -0.274478953309679E+00
              0.111523111267393E+01
              0.174959951281209E+01
             -0.906452435269806E-01
             -0.169905093112995E+01
              0.142465220126851E+00
              0.320510202232512E-01
             -0.234307931725775E+00
              0.669776824639525E-01
             -0.143904040169193E+01
             -0.161730905773462E+00
              0.324702510034416E+00
              0.335343243718312E+00
              0.113068215015068E+01
             -0.951759635925677E+00
              0.112669384602383E+01
             -0.858502630523302E+00
              0.627073533649249E+00
              0.980775748161657E+00
 
 BEEF-vdW xc energy contributions
           1 :   -15.6520560869768     
           2 :    12.8544420336573     
           3 :   -8.81690697933974     
           4 :    5.01942257290665     
           5 :   -2.17888018625710     
           6 :   0.450752888808104     
           7 :   0.314798897110034     
           8 :  -0.447948631008604     
           9 :   0.326160663999008     
          10 :  -0.246650898317778     
          11 :   0.325189496212946     
          12 :  -0.504302834513155     
          13 :   0.649424495642137     
          14 :  -0.660860596705717     
          15 :   0.518649264071311     
          16 :  -0.280162712212867     
          17 :   4.193905045915969E-002
          18 :   0.109774453826812     
          19 :  -0.144855636294700     
          20 :   9.496397567895087E-002
          21 :  -2.487262846462812E-002
          22 :  -1.155676276146167E-002
          23 :  -6.881792143076382E-004
          24 :   3.351351859721774E-002
          25 :  -4.503445812711604E-002
          26 :   9.985760037281466E-003
          27 :   6.750401984975696E-002
          28 :  -0.155596755222202     
          29 :   0.209665067122593     
          30 :  -0.203454203351669     
          31 :   -2.16589344203003     
          32 :   -1.36037939354429     

     Writing output data file ./pwscf.save/
 
     init_run     :     69.82s CPU     72.60s WALL (       1 calls)
     electrons    :    678.72s CPU    732.18s WALL (       1 calls)
     forces       :     29.91s CPU     32.37s WALL (       1 calls)

     Called by init_run:
     wfcinit      :      2.92s CPU      3.01s WALL (       1 calls)
     potinit      :     57.52s CPU     59.53s WALL (       1 calls)
     hinit0       :      7.62s CPU      7.79s WALL (       1 calls)

     Called by electrons:
     c_bands      :    137.97s CPU    139.25s WALL (      17 calls)
     sum_band     :     51.80s CPU     59.30s WALL (      17 calls)
     v_of_rho     :    377.31s CPU    410.55s WALL (      18 calls)
     newd         :     18.71s CPU     26.30s WALL (      18 calls)
     PAW_pot      :      2.31s CPU      2.32s WALL (      18 calls)
     mix_rho      :    142.13s CPU    148.24s WALL (      17 calls)
     vdW_kernel   :     33.46s CPU     33.46s WALL (       1 calls)

     Called by c_bands:
     init_us_2    :      1.91s CPU      1.95s WALL (      35 calls)
     regterg      :    133.91s CPU    135.18s WALL (      17 calls)

     Called by *egterg:
     rdiaghg      :      0.03s CPU      0.04s WALL (     142 calls)
     h_psi        :    119.82s CPU    119.86s WALL (     143 calls)
     s_psi        :      3.64s CPU      3.64s WALL (     143 calls)
     g_psi        :      0.39s CPU      0.39s WALL (     125 calls)

     Called by h_psi:
     h_psi:calbec :      2.99s CPU      3.00s WALL (     143 calls)
     vloc_psi     :    112.47s CPU    112.49s WALL (     143 calls)
     add_vuspsi   :      3.75s CPU      3.75s WALL (     143 calls)

     General routines
     calbec       :      3.62s CPU      3.63s WALL (     164 calls)
     fft          :    349.45s CPU    349.51s WALL (    2991 calls)
     ffts         :     65.54s CPU     65.54s WALL (     569 calls)
     fftw         :    109.87s CPU    109.88s WALL (     951 calls)
 
     Parallel routines
 
     PWSCF        :  22m45.75s CPU  24m45.75s WALL

 
   This run was terminated on:  23:19:17   3Jan2023            

=------------------------------------------------------------------------------=
   JOB DONE.
=------------------------------------------------------------------------------=
