
     Program PWSCF v.6.7MaX starts on 20Dec2022 at 16:51:18 

     This program is part of the open-source Quantum ESPRESSO suite
     for quantum simulation of materials; please cite
         "P. Giannozzi et al., J. Phys.:Condens. Matter 21 395502 (2009);
         "P. Giannozzi et al., J. Phys.:Condens. Matter 29 465901 (2017);
          URL http://www.quantum-espresso.org", 
     in publications or presentations arising from this work. More details at
     http://www.quantum-espresso.org/quote

     Parallel version (MPI), running on     1 processors

     MPI processes distributed on     1 nodes
     Reading input from ch2cch2-gas-ensemble.in
Warning: card &CELL ignored
Warning: card / ignored

     Current dimensions of program PWSCF are:
     Max number of different atomic species (ntypx) = 10
     Max number of k-points (npk) =  40000
     Max angular momentum in pseudopotentials (lmaxx) =  3
     file C.pbe-n-kjpaw_psl.1.0.0.UPF: wavefunction(s)  2S 2P renormalized
     file H.pbe-kjpaw_psl.1.0.0.UPF: wavefunction(s)  1S renormalized

     **************************************************************************
     Initializing libbeef V0.1.2 with the BEEF-vdW functional.
     Citation: Wellendorff et al., PRB 85, 235149 (2012).
     **************************************************************************


     IMPORTANT: XC functional enforced from input :
     Exchange-correlation= BEEF-VDW
                           (   1   4  43  14   2   0   0)
     Any further DFT definition will be discarded
     Please, verify this is what you really want


     gamma-point specific algorithms are used

     Subspace diagonalization in iterative solution of the eigenvalue problem:
     a serial algorithm will be used

 
     G-vector sticks info
     --------------------
     sticks:   dense  smooth     PW     G-vecs:    dense   smooth      PW
     Sum       36173   36173   9033              5000591  5000591  625003
 


     bravais-lattice index     =            0
     lattice parameter (alat)  =      41.9476  a.u.
     unit-cell volume          =   79644.6834 (a.u.)^3
     number of atoms/cell      =            7
     number of atomic types    =            2
     number of electrons       =        16.00
     number of Kohn-Sham states=           12
     kinetic-energy cutoff     =      60.0000  Ry
     charge density cutoff     =     240.0000  Ry
     scf convergence threshold =      1.0E-06
     mixing beta               =       0.7000
     number of iterations used =            8  local-TF  mixing
     Exchange-correlation= BEEF-VDW
                           (   1   4  43  14   2   0   0)

     celldm(1)=  41.947560  celldm(2)=   0.000000  celldm(3)=   0.000000
     celldm(4)=   0.000000  celldm(5)=   0.000000  celldm(6)=   0.000000

     crystal axes: (cart. coord. in units of alat)
               a(1) = (   1.000000   0.000000   0.000000 )  
               a(2) = (   0.000000   1.076546   0.000000 )  
               a(3) = (   0.000000   0.000000   1.002315 )  

     reciprocal axes: (cart. coord. in units 2 pi/alat)
               b(1) = (  1.000000  0.000000  0.000000 )  
               b(2) = (  0.000000  0.928897  0.000000 )  
               b(3) = (  0.000000  0.000000  0.997691 )  


     PseudoPot. # 1 for C  read from file:
     /users/bkreitz1/quantum-espresso/potentials/C.pbe-n-kjpaw_psl.1.0.0.UPF
     MD5 check sum: a169b0ebad56f5ec0d79c4633f80bf22
     Pseudo is Projector augmented-wave + core cor, Zval =  4.0
     Generated using 'atomic' code by A. Dal Corso  v.6.7MaX
     Shape of augmentation charge: PSQ
     Using radial grid of 1073 points,  4 beta functions with: 
                l(1) =   0
                l(2) =   0
                l(3) =   1
                l(4) =   1
     Q(r) pseudized with 0 coefficients 


     PseudoPot. # 2 for H  read from file:
     /users/bkreitz1/quantum-espresso/potentials/H.pbe-kjpaw_psl.1.0.0.UPF
     MD5 check sum: ae98473e6dc62675f0d0baffdab24f65
     Pseudo is Projector augmented-wave, Zval =  1.0
     Generated using 'atomic' code by A. Dal Corso  v.6.7MaX
     Shape of augmentation charge: PSQ
     Using radial grid of  929 points,  2 beta functions with: 
                l(1) =   0
                l(2) =   0
     Q(r) pseudized with 0 coefficients 


     atomic species   valence    mass     pseudopotential
        C              4.00    12.01100     C ( 1.00)
        H              1.00     1.00800     H ( 1.00)

     No symmetry found



   Cartesian axes

     site n.     atom                  positions (alat units)
         1           C   tau(   1) = (   0.4652305   0.4862315   0.5038239  )
         2           C   tau(   2) = (   0.4837872   0.5378379   0.4826014  )
         3           C   tau(   3) = (   0.5025244   0.5893283   0.4611552  )
         4           H   tau(   4) = (   0.4505701   0.4504467   0.4739244  )
         5           H   tau(   5) = (   0.4633886   0.4773436   0.5518282  )
         6           H   tau(   6) = (   0.5495900   0.5968864   0.4504826  )
         7           H   tau(   7) = (   0.4714365   0.6260408   0.4531622  )

     number of k points=     1  Gaussian smearing, width (Ry)=  0.0050
                       cart. coord. in units 2pi/alat
        k(    1) = (   0.0000000   0.0000000   0.0000000), wk =   2.0000000

     Dense  grid:  2500296 G-vectors     FFT dimensions: ( 216, 225, 216)

     Estimated max dynamical RAM per process >       3.99 GB

     Initial potential from superposition of free atoms

     starting charge   15.99984, renormalised to   16.00000

     negative rho (up, down):  9.436E-03 0.000E+00


     %%%%%%%%%%%%%%%%%%%%%%%%%%%%%%%%%%%%%%%%%%%%%%%%%%%%%%%%%%%%%%%%%%%%%%%%
     %                                                                      %
     % You are using vdW-DF, which was implemented by the Thonhauser group. %
     % Please cite the following two papers that made this development      %
     % possible and the two reviews that describe the various versions:     %
     %                                                                      %
     %   T. Thonhauser et al., PRL 115, 136402 (2015).                      %
     %   T. Thonhauser et al., PRB 76, 125112 (2007).                       %
     %   K. Berland et al., Rep. Prog. Phys. 78, 066501 (2015).             %
     %   D.C. Langreth et al., J. Phys.: Condens. Matter 21, 084203 (2009). %
     %                                                                      %
     %                                                                      %
     % If you are calculating the stress with vdW-DF, please also cite:     %
     %                                                                      %
     %   R. Sabatini et al., J. Phys.: Condens. Matter 24, 424209 (2012).   %
     %                                                                      %
     %%%%%%%%%%%%%%%%%%%%%%%%%%%%%%%%%%%%%%%%%%%%%%%%%%%%%%%%%%%%%%%%%%%%%%%%


     Starting wfcs are   16 randomized atomic wfcs
     Checking if some PAW data can be deallocated... 

     total cpu time spent up to now is       71.2 secs

     Self-consistent Calculation

     iteration #  1     ecut=    60.00 Ry     beta= 0.70
     Davidson diagonalization with overlap
     ethr =  1.00E-02,  avg # of iterations =  5.0

     negative rho (up, down):  8.209E-03 0.000E+00

     total cpu time spent up to now is      110.7 secs

     total energy              =     -61.81931700 Ry
     estimated scf accuracy    <       0.87616992 Ry

     iteration #  2     ecut=    60.00 Ry     beta= 0.70
     Davidson diagonalization with overlap
     ethr =  5.48E-03,  avg # of iterations =  1.0

     negative rho (up, down):  5.695E-03 0.000E+00

     total cpu time spent up to now is      148.0 secs

     total energy              =     -61.72284081 Ry
     estimated scf accuracy    <       0.25871316 Ry

     iteration #  3     ecut=    60.00 Ry     beta= 0.70
     Davidson diagonalization with overlap
     ethr =  1.62E-03,  avg # of iterations =  2.0

     negative rho (up, down):  3.442E-03 0.000E+00

     total cpu time spent up to now is      186.3 secs

     total energy              =     -61.75311442 Ry
     estimated scf accuracy    <       0.03656712 Ry

     iteration #  4     ecut=    60.00 Ry     beta= 0.70
     Davidson diagonalization with overlap
     ethr =  2.29E-04,  avg # of iterations =  5.0

     negative rho (up, down):  4.111E-02 0.000E+00

     total cpu time spent up to now is      227.7 secs

     total energy              =     -61.74630790 Ry
     estimated scf accuracy    <       0.02158452 Ry

     iteration #  5     ecut=    60.00 Ry     beta= 0.70
     Davidson diagonalization with overlap
     ethr =  1.35E-04,  avg # of iterations =  5.0

     negative rho (up, down):  7.629E-02 0.000E+00

     total cpu time spent up to now is      268.0 secs

     total energy              =     -61.74503981 Ry
     estimated scf accuracy    <       0.00931534 Ry

     iteration #  6     ecut=    60.00 Ry     beta= 0.70
     Davidson diagonalization with overlap
     ethr =  5.82E-05,  avg # of iterations =  5.0

     negative rho (up, down):  1.442E-01 0.000E+00

     total cpu time spent up to now is      309.1 secs

     total energy              =     -61.74687044 Ry
     estimated scf accuracy    <       0.00405459 Ry

     iteration #  7     ecut=    60.00 Ry     beta= 0.70
     Davidson diagonalization with overlap
     ethr =  2.53E-05,  avg # of iterations =  5.0

     negative rho (up, down):  1.212E-01 0.000E+00

     total cpu time spent up to now is      350.6 secs

     total energy              =     -61.74551811 Ry
     estimated scf accuracy    <       0.00164844 Ry

     iteration #  8     ecut=    60.00 Ry     beta= 0.70
     Davidson diagonalization with overlap
     ethr =  1.03E-05,  avg # of iterations =  7.0

     negative rho (up, down):  1.045E-01 0.000E+00

     total cpu time spent up to now is      391.8 secs

     total energy              =     -61.74495742 Ry
     estimated scf accuracy    <       0.00072619 Ry

     iteration #  9     ecut=    60.00 Ry     beta= 0.70
     Davidson diagonalization with overlap
     ethr =  4.54E-06,  avg # of iterations =  6.0

     negative rho (up, down):  6.444E-02 0.000E+00

     total cpu time spent up to now is      434.0 secs

     total energy              =     -61.74414912 Ry
     estimated scf accuracy    <       0.00058294 Ry

     iteration # 10     ecut=    60.00 Ry     beta= 0.70
     Davidson diagonalization with overlap
     ethr =  3.64E-06,  avg # of iterations =  9.0

     negative rho (up, down):  5.050E-02 0.000E+00

     total cpu time spent up to now is      476.0 secs

     total energy              =     -61.74410827 Ry
     estimated scf accuracy    <       0.00010873 Ry

     iteration # 11     ecut=    60.00 Ry     beta= 0.70
     Davidson diagonalization with overlap
     ethr =  6.80E-07,  avg # of iterations =  5.0

     negative rho (up, down):  3.512E-02 0.000E+00

     total cpu time spent up to now is      516.4 secs

     total energy              =     -61.74415321 Ry
     estimated scf accuracy    <       0.00006123 Ry

     iteration # 12     ecut=    60.00 Ry     beta= 0.70
     Davidson diagonalization with overlap
     ethr =  3.83E-07,  avg # of iterations =  7.0

     negative rho (up, down):  2.706E-02 0.000E+00

     total cpu time spent up to now is      555.5 secs

     total energy              =     -61.74414651 Ry
     estimated scf accuracy    <       0.00002259 Ry

     iteration # 13     ecut=    60.00 Ry     beta= 0.70
     Davidson diagonalization with overlap
     ethr =  1.41E-07,  avg # of iterations =  5.0

     negative rho (up, down):  2.127E-02 0.000E+00

     total cpu time spent up to now is      593.7 secs

     total energy              =     -61.74415848 Ry
     estimated scf accuracy    <       0.00001031 Ry

     iteration # 14     ecut=    60.00 Ry     beta= 0.70
     Davidson diagonalization with overlap
     ethr =  6.45E-08,  avg # of iterations =  2.0

     negative rho (up, down):  1.940E-02 0.000E+00

     total cpu time spent up to now is      631.4 secs

     total energy              =     -61.74416634 Ry
     estimated scf accuracy    <       0.00000206 Ry

     iteration # 15     ecut=    60.00 Ry     beta= 0.70
     Davidson diagonalization with overlap
     ethr =  1.29E-08,  avg # of iterations =  1.0

     negative rho (up, down):  1.823E-02 0.000E+00

     total cpu time spent up to now is      668.3 secs

     total energy              =     -61.74416544 Ry
     estimated scf accuracy    <       0.00000101 Ry

     iteration # 16     ecut=    60.00 Ry     beta= 0.70
     Davidson diagonalization with overlap
     ethr =  6.30E-09,  avg # of iterations =  1.0

     negative rho (up, down):  1.772E-02 0.000E+00

     total cpu time spent up to now is      696.4 secs

     End of self-consistent calculation

          k = 0.0000 0.0000 0.0000 (312502 PWs)   bands (ev):

   -19.9972 -17.8105 -13.2044 -11.3740 -11.1897 -11.1719  -6.7813  -6.7739
    -1.0825  -1.0752  -0.9044  -0.4004

     the Fermi energy is    -5.2315 ev

!    total energy              =     -61.74416552 Ry

     total all-electron energy =      -235.036440 Ry
     estimated scf accuracy    <       0.00000029 Ry
     smearing contrib. (-TS)   =      -0.00000000 Ry
     internal energy E=F+TS    =     -61.74416552 Ry

     The total energy is F=E-TS. E is the sum of the following terms:
     one-electron contribution =    -146.93819947 Ry
     hartree contribution      =      75.42051773 Ry
     xc contribution           =     -17.30155269 Ry
     ewald contribution        =      46.72113272 Ry
     one-center paw contrib.   =     -19.64606380 Ry

     convergence has been achieved in  16 iterations

     negative rho (up, down):  1.772E-02 0.000E+00

     Forces acting on atoms (cartesian axes, Ry/au):

     atom    1 type  1   force =    -0.00157930   -0.00265680   -0.00163284
     atom    2 type  1   force =     0.00190523    0.00131142    0.00008674
     atom    3 type  1   force =    -0.00024052   -0.00140796    0.00032147
     atom    4 type  2   force =     0.00052518    0.00012062    0.00117779
     atom    5 type  2   force =     0.00044625    0.00042684   -0.00024552
     atom    6 type  2   force =    -0.00052207   -0.00002028    0.00049732
     atom    7 type  2   force =    -0.00053478    0.00222615   -0.00020495

     Total force =     0.005258     Total SCF correction =     0.000226

     negative rho (up, down):  1.772E-02 0.000E+00

     negative rho (up, down):  1.772E-02 0.000E+00

     negative rho (up, down):  1.772E-02 0.000E+00

     negative rho (up, down):  1.772E-02 0.000E+00

     negative rho (up, down):  1.772E-02 0.000E+00

     negative rho (up, down):  1.772E-02 0.000E+00

     negative rho (up, down):  1.772E-02 0.000E+00

     negative rho (up, down):  1.772E-02 0.000E+00

     negative rho (up, down):  1.772E-02 0.000E+00

     negative rho (up, down):  1.772E-02 0.000E+00

     negative rho (up, down):  1.772E-02 0.000E+00

     negative rho (up, down):  1.772E-02 0.000E+00

     negative rho (up, down):  1.772E-02 0.000E+00

     negative rho (up, down):  1.772E-02 0.000E+00

     negative rho (up, down):  1.772E-02 0.000E+00

     negative rho (up, down):  1.772E-02 0.000E+00

     negative rho (up, down):  1.772E-02 0.000E+00

     negative rho (up, down):  1.772E-02 0.000E+00

     negative rho (up, down):  1.772E-02 0.000E+00

     negative rho (up, down):  1.772E-02 0.000E+00

     negative rho (up, down):  1.772E-02 0.000E+00

     negative rho (up, down):  1.772E-02 0.000E+00

     negative rho (up, down):  1.772E-02 0.000E+00

     negative rho (up, down):  1.772E-02 0.000E+00

     negative rho (up, down):  1.772E-02 0.000E+00

     negative rho (up, down):  1.772E-02 0.000E+00

     negative rho (up, down):  1.772E-02 0.000E+00

     negative rho (up, down):  1.772E-02 0.000E+00

     negative rho (up, down):  1.772E-02 0.000E+00

     negative rho (up, down):  1.772E-02 0.000E+00

     negative rho (up, down):  1.772E-02 0.000E+00

     negative rho (up, down):  1.772E-02 0.000E+00

     negative rho (up, down):  1.772E-02 0.000E+00

     negative rho (up, down):  1.772E-02 0.000E+00
 BEEFens 2000 ensemble energies
             -0.132315335262715E+01
             -0.417498269203969E-01
             -0.256994328430011E+00
              0.890677264906141E+00
             -0.420793172697216E+00
             -0.300313012378857E+00
             -0.978089862140141E+00
             -0.198350524061486E+01
             -0.652571168156783E+00
             -0.709835894095685E+00
             -0.732488940537511E+00
              0.130957443079811E+00
              0.780642041079691E-01
             -0.130368692177283E+00
              0.786242090522249E-01
              0.957291472866110E+00
             -0.383670845251133E+00
             -0.157677712229264E+00
              0.511733828357748E+00
             -0.222700815855431E+01
              0.113635847876642E+01
             -0.369499125354036E+00
             -0.128289932855850E+00
             -0.167201159004538E+00
              0.824988451088924E-01
             -0.877263950948097E-01
              0.177497619216752E+01
             -0.502781550454142E+00
             -0.145849046068127E+00
             -0.115379392422068E+01
              0.134194833888793E+01
             -0.391031501307451E-01
             -0.845121478923176E+00
              0.335075141791037E+00
             -0.554146314896391E-01
              0.625569117791700E+00
              0.519639401227687E-01
             -0.371320227648200E-01
              0.814474829535207E+00
             -0.198856221558291E+01
              0.111129530126290E+01
              0.244839270480255E+00
             -0.282382206708565E+00
             -0.577616063081087E+00
              0.251873293105077E+00
             -0.371042603988099E+00
              0.104737569961353E+01
              0.700379205295876E+00
             -0.349542432240353E+00
             -0.655851821281662E+00
             -0.636141469392015E+00
             -0.766969988051978E+00
              0.495197273224291E+00
             -0.105799715643249E+01
              0.336711111082833E+00
              0.123394842913148E+01
              0.155145909157595E+01
              0.631981112182760E+00
              0.324073870521043E+00
              0.678067419744746E+00
              0.185136500682742E+01
              0.304760173548944E+00
             -0.110590647343162E+01
             -0.174300384136524E+00
             -0.610995188827875E+00
              0.125565244821719E+01
             -0.142025939809640E+01
             -0.118613133868579E+01
             -0.714332170644546E+00
             -0.430057846843974E+00
             -0.754910678477014E+00
              0.560876904657260E+00
              0.280293970486003E+00
              0.333204670078311E+00
             -0.781723021452533E+00
             -0.718310605628857E+00
             -0.120581772086015E+01
              0.610546912771850E+00
             -0.705488878355959E+00
              0.670784716438502E+00
             -0.181743167447731E+00
             -0.559311820051916E+00
             -0.977748869608195E+00
             -0.298737848603501E+00
             -0.354702850759281E+00
             -0.280214703886841E+00
              0.780852852641747E+00
              0.161004999876730E+01
             -0.933158989193160E+00
             -0.159431830940499E+01
             -0.363982939322826E+00
              0.217909531565705E+01
             -0.113225438059498E+01
              0.616664421528829E+00
             -0.243370326540726E+00
             -0.117078207140869E+01
              0.553710937241991E+00
              0.579874836160863E+00
             -0.303949770628908E+00
              0.557168933762705E+00
             -0.490142582920512E+00
             -0.127345021818076E+01
              0.207829001000836E+01
              0.913969755418160E+00
              0.386001956315708E+00
              0.251505972643228E+00
              0.489968252753638E+00
              0.163382828518582E+01
             -0.538595194805601E+00
              0.472279193319811E-01
             -0.277734516235984E+01
              0.341096326874345E+00
             -0.132728578650070E+01
              0.246239874074722E+00
              0.437008671651306E+00
             -0.761750551821583E+00
             -0.994922665877673E+00
              0.359129306584371E-01
             -0.633133597088414E+00
              0.925907007366767E+00
             -0.901402387167626E+00
             -0.197583373251835E+00
             -0.780196136505607E+00
             -0.633945941983756E-01
              0.127995832480274E+00
              0.500574833375813E+00
             -0.555307268913730E-02
             -0.114844298740985E+00
              0.137366245433188E+01
              0.185899094320035E+01
              0.101205912963486E+01
              0.125760832023297E+01
             -0.261940681755463E+00
              0.150039484082017E+00
              0.102033486396433E+01
              0.156395624718025E+00
             -0.153503998086954E+01
             -0.916960610220075E+00
             -0.984542561559926E+00
             -0.591524607833933E+00
              0.513762360701340E+00
             -0.246834769764202E+01
             -0.237332260736371E+00
              0.952665316557022E+00
             -0.820812525969087E+00
             -0.567039677605152E+00
              0.120397603534591E+01
              0.996564641856514E+00
             -0.559044685155637E+00
              0.726932730758352E+00
             -0.509792656957036E+00
              0.765181628188597E+00
              0.133450097594929E+00
              0.184473065589934E+00
             -0.163501556980789E+01
             -0.952811219545909E+00
             -0.172759062054698E+00
             -0.848403913359704E-01
             -0.870209263265245E+00
              0.226698701642862E+01
             -0.196553932685624E+00
             -0.522417831390589E+00
              0.777187230095514E+00
             -0.884712286577241E+00
             -0.786011074993127E+00
              0.668257747418062E+00
              0.258942604653309E+00
              0.212979811563496E+00
              0.354288545149461E+00
             -0.214599325981203E+00
              0.166759488486797E+00
              0.116716986035528E+01
             -0.520399323045306E+00
              0.459244583897898E+00
              0.178363767350456E+01
              0.638221880033231E+00
             -0.663886131709273E-01
             -0.431805290475617E+00
              0.314028599373763E+01
             -0.536439893413539E+00
              0.807947608281402E+00
              0.653577833120640E+00
              0.522277894212634E+00
              0.187313985817872E+01
              0.919317426435114E+00
             -0.105435176885778E+00
              0.522567598075396E+00
              0.107161478917648E+01
              0.767524544904313E+00
             -0.124865576501966E+01
              0.191053023812593E+01
             -0.173361595389164E+01
             -0.184960291945842E+00
              0.112028420167103E+01
              0.390259029595939E+00
              0.119300782091283E+00
              0.524160803838937E+00
              0.296109949407179E+00
              0.643182036776842E+00
             -0.125748654053615E+01
              0.651930502008504E-01
             -0.463633193045288E+00
             -0.973916821245433E-01
             -0.709794529661334E-01
             -0.286671672863199E+00
             -0.132623878318029E+00
              0.167226481108105E+01
             -0.880806222067574E-01
             -0.571815107344070E+00
             -0.167507093146689E-01
              0.298863241791323E+00
             -0.131127188785895E+01
             -0.116984522129977E+01
             -0.674140843601321E+00
             -0.127571291373934E+01
             -0.392716579313082E+00
             -0.811264913774895E+00
              0.354261394616822E+00
              0.577451413934331E-01
             -0.267389815049368E+00
             -0.158849453117124E+00
              0.931274572848109E-01
             -0.232674247301604E+00
              0.131562915896877E+01
             -0.179620586312341E+01
             -0.263695453816540E+00
             -0.258810768406531E+00
              0.298834706712416E+00
              0.470786340539661E+00
             -0.104851426790976E+01
             -0.228850028958709E+00
              0.906166940609181E+00
             -0.376974573071437E+00
              0.273311939564904E+00
              0.657764934291632E+00
             -0.138560813290738E-01
              0.232101868944667E+01
             -0.179856911826516E+00
             -0.694502861097948E+00
             -0.209236052380772E-01
             -0.587992600919380E+00
              0.110435294768211E+01
             -0.102254261037314E+01
              0.305784089428816E+00
              0.953655348746640E+00
             -0.249839160839800E+00
              0.237482503961536E+01
              0.256877293554844E+01
             -0.143830042488507E+01
              0.116548154803099E+01
              0.509657481959292E+00
             -0.114737214776938E+01
              0.342312679151191E+00
              0.906280098142052E+00
              0.975322986486781E+00
              0.907821159606348E-01
              0.400961363855423E+00
              0.153021748356788E+01
             -0.469881010620935E+00
              0.172062449223663E+00
              0.132266708574373E+01
             -0.717238524768548E+00
             -0.525866135705856E+00
              0.123019365087340E+01
              0.631774151932288E+00
              0.154830021191983E+01
              0.721021524174802E+00
              0.302661930858871E+00
              0.496529164009312E+00
              0.873220334618605E+00
             -0.110034298905133E+01
              0.176152738755029E+00
              0.608073960820942E+00
              0.224848272043555E+00
              0.502984170300118E+00
             -0.127289025965047E+01
              0.637952301586488E+00
             -0.866747334547517E+00
             -0.634293088342437E+00
              0.418247337803858E+00
             -0.150923740192205E+00
              0.124460453385040E+01
             -0.235468125137455E+00
              0.599449998699797E+00
              0.604678279275308E+00
              0.154923418353476E+01
              0.104335945158263E+01
              0.104337938662205E+01
             -0.611954155519268E-02
             -0.254481371846849E+00
             -0.591322459956256E+00
              0.168586230748641E+01
              0.167697779437091E+01
              0.805990932641866E+00
             -0.595420575606715E+00
              0.996599677708252E+00
              0.402555601694567E-01
              0.312660187708842E+00
              0.142908980597167E+01
             -0.584890673899756E-01
             -0.205048332035259E+00
             -0.398340736346876E+00
             -0.128301619073290E+01
              0.195331470802496E+01
              0.106971387579463E+01
             -0.134015522551387E+01
             -0.459960961460891E+00
              0.490651286092457E+00
             -0.203347703986059E+00
              0.134045936113068E+01
              0.312891843979047E+00
              0.165281712889066E+01
              0.642643622339208E+00
             -0.442620000834410E+00
              0.340832348932440E+00
             -0.149857933959462E+00
             -0.480516025576041E+00
              0.341744358916001E+00
              0.306334577870073E+00
              0.184741236396535E+01
              0.153450296837757E+01
              0.117244371185623E+01
              0.134041949569376E+01
              0.143189723219073E+00
             -0.513947810957237E+00
              0.268622730784130E+00
             -0.664209664838420E+00
             -0.117029742142927E+01
             -0.112862444905060E+01
             -0.665838054442756E+00
             -0.218546574017799E+01
             -0.780176505522388E+00
             -0.176056739731135E+01
              0.429030963631625E+00
             -0.905448044537732E+00
              0.106678314335386E+01
             -0.202021890870052E+01
             -0.599985668670458E+00
              0.736741464992686E+00
              0.440004672014381E+00
             -0.185979385118105E+01
              0.104646075469909E+01
             -0.586918613996597E+00
              0.112562433826098E+01
             -0.534517695243166E+00
             -0.158490142897367E+01
              0.364226776222548E+00
             -0.133951604752902E+01
             -0.235671219558702E-01
             -0.435220412758455E-01
              0.824703258907599E+00
              0.255303535712051E+01
             -0.856973131131515E+00
             -0.765177579143478E+00
             -0.152670977955022E+00
             -0.134641045359272E+00
             -0.162180148795808E+01
             -0.113835143561652E+01
              0.999846754139547E+00
             -0.335441913146317E+00
              0.483087790126194E+00
             -0.994511045130647E+00
             -0.335259027859965E+00
             -0.843973063637272E+00
              0.969911840343519E+00
              0.229031728508740E+00
             -0.502072727845379E+00
             -0.385312645628965E+00
              0.284065267912359E+00
             -0.147365575004012E+00
              0.798485602195087E+00
             -0.536650048917762E+00
              0.258253573484922E+00
              0.689782519856048E+00
              0.233764850878963E+00
             -0.506009250868379E+00
              0.313314974407481E+01
              0.123130882541209E+01
              0.219267545494020E+00
              0.121933131692481E+00
             -0.122566550951853E+01
              0.687190129758535E+00
             -0.159840041469854E+01
             -0.716747909577799E+00
             -0.122279458445050E+01
             -0.371079057723041E+00
              0.121586552795035E+01
             -0.117834580500676E+01
              0.567490524643798E+00
             -0.957205731075508E-01
              0.204766728876669E-01
             -0.616858060981006E+00
             -0.834867366113347E+00
             -0.160329990156548E+00
             -0.626714179793489E+00
             -0.441575224148843E+00
             -0.807569878778559E+00
             -0.953843045418711E-01
             -0.637324342596196E+00
             -0.974242705583601E+00
              0.414596243190678E+00
             -0.221247828264601E+00
              0.502643687728787E+00
              0.160875941751223E+00
             -0.154060475350735E+01
             -0.101533760724425E+01
             -0.105363199630380E+01
              0.622983993088059E+00
             -0.154955785333283E+00
             -0.123280568320860E+01
              0.115660660454736E+01
             -0.863077104511405E+00
              0.121518743971820E+01
             -0.638241257014462E+00
             -0.989029149065174E+00
              0.484751909383018E+00
             -0.148123654132882E+01
             -0.616342220368991E+00
              0.116912492273361E+01
              0.417643786598466E+00
             -0.906387630827160E+00
              0.113941661147461E+01
             -0.328196417052506E+00
             -0.753826455681818E+00
             -0.598851516673821E+00
             -0.106695654708412E+01
              0.540780316947271E+00
             -0.176211790378659E+01
             -0.152574812677596E+01
             -0.159295133739176E+00
             -0.591541338100519E+00
             -0.124423907950552E+01
              0.156108082299140E+01
              0.281364912396656E+01
             -0.399209497357496E+00
             -0.869158049707925E-01
             -0.120717762776452E+01
              0.135127292719670E+01
              0.449931554392372E+00
             -0.435181690839126E+00
             -0.727782036723238E+00
              0.286350492396560E+00
             -0.120221250232384E+01
             -0.212065496332705E+00
             -0.173160935391509E+01
              0.689339169692733E+00
              0.216013132359114E+00
             -0.125835991022617E+00
             -0.261796999377550E+00
             -0.875581146640609E+00
             -0.284011800337744E+00
              0.279398962009051E+01
             -0.315092664095133E+00
             -0.998123007114929E+00
             -0.141810406917863E+01
              0.291374187959483E+00
             -0.789846627543636E+00
              0.214453172370710E+00
              0.684779757169091E+00
              0.101243059226008E+00
              0.745451129749502E+00
              0.385715595922602E+00
              0.119284967009522E+01
              0.482981917279616E+00
             -0.752087416567434E+00
              0.114450632713013E+01
              0.694840309666933E+00
              0.258976508021630E+00
              0.732279559025343E+00
             -0.665709509897201E+00
              0.144778654240999E+01
              0.556595348156903E+00
             -0.716435763700105E+00
             -0.108595683574254E+00
             -0.331781149139450E+00
              0.295433373103788E+00
             -0.506077399812540E+00
             -0.269898945137268E+00
             -0.262307566084512E+00
              0.164794550218983E+01
              0.119227097127620E+01
             -0.128414875931468E+01
             -0.178724458722634E+00
             -0.100292124167044E+01
             -0.255930790544852E+00
             -0.427468394237840E+00
              0.234070697079780E+00
             -0.638370400750589E-01
             -0.587635587707655E+00
              0.368246898248183E+00
             -0.195389815896596E+00
             -0.130963226239919E+00
              0.177749882951661E+01
              0.289625925374815E+00
             -0.171087123809763E+01
             -0.760919851820628E+00
              0.196731056826027E+01
              0.473944283126364E+00
             -0.172697498516602E+00
              0.223567952000699E+01
             -0.324781454956177E+00
             -0.148670816421844E+00
             -0.258952028269976E+00
              0.326744868923162E+00
              0.696222458282499E+00
              0.513653776597058E-01
              0.582511374867879E+00
             -0.214546249775347E+00
             -0.838893318596041E+00
             -0.795589469209698E+00
             -0.976418065255872E+00
              0.812767676005819E+00
              0.301265090358393E+00
              0.768853200423057E+00
              0.326804533847841E+00
              0.184399790837065E+01
              0.423147282371857E+00
             -0.156241211277769E+01
             -0.669106808198497E+00
              0.375116868178471E-01
             -0.569921016623030E+00
              0.130372472924859E+01
             -0.324317298536499E+00
              0.343944174617096E+00
              0.113840701148037E+01
             -0.166012737006330E+01
              0.300033642863533E+01
              0.399608049247607E+00
              0.495088464028509E+00
              0.780201340520035E+00
              0.553294685571739E-01
             -0.415541451321326E-01
              0.648362291913490E+00
             -0.713876247737928E+00
              0.177824412399222E+01
              0.155344518935406E+01
             -0.788186123698722E+00
              0.345531569781597E+00
              0.147628924992493E+01
             -0.434723777783286E+00
              0.434725018280635E+00
              0.644151611185879E+00
              0.836349335486291E+00
             -0.150052359795649E+01
             -0.999778824431239E-01
             -0.517597946247018E+00
             -0.122700324093470E+00
             -0.153359751652842E+00
              0.164443550342144E+00
             -0.244770511057451E+00
             -0.622779976311200E+00
              0.359024300729424E+00
              0.112603225394747E+00
              0.108244600314759E+01
             -0.955559193041907E+00
              0.954241819785985E+00
              0.103928196645963E+01
             -0.157830795124542E+00
              0.149273858245215E+01
             -0.137172352435686E+01
             -0.210005106723168E+01
             -0.175709166468461E+00
             -0.133156793604332E+00
             -0.664448377801108E-02
              0.159076016983457E+01
             -0.133346590006576E-01
              0.875447667096590E+00
              0.123655689086874E+01
              0.795507586193418E+00
             -0.128990340679369E+00
              0.119531698586569E+01
             -0.344665274047335E+00
             -0.806596767050486E+00
             -0.702024639837209E+00
              0.226625317060987E+00
              0.698315435538480E+00
             -0.456317997113982E-01
              0.672880944533166E+00
              0.142487229150019E-01
              0.111756021007296E+01
              0.319447729026213E+00
              0.162493236366917E+00
              0.319114579801667E-01
              0.589570133951117E+00
              0.839016414137646E+00
              0.291986808610791E+00
             -0.745810508823119E-01
             -0.111076620968658E+01
              0.615483789551190E+00
              0.426340847710456E+00
              0.661281454977348E+00
              0.608375731801986E+00
              0.748091383358590E+00
             -0.198694481712920E+00
              0.710559540626459E+00
             -0.612579923955234E+00
             -0.345930115232580E-01
             -0.106624402032315E+01
             -0.713121345647577E+00
              0.884178287315287E+00
             -0.179041917345112E+01
              0.480169535228217E+00
              0.278366045144285E+00
              0.176676227745844E+01
             -0.235412536922734E+00
              0.679765887686670E+00
             -0.234159349485498E+00
             -0.101163459916033E+01
             -0.132741071912745E+01
             -0.327621706964657E+00
             -0.185950530043333E+01
              0.153906926040760E+00
             -0.422425715288389E+00
              0.675078844127955E+00
              0.509831478503511E+00
             -0.593894677419383E+00
             -0.624267942720424E+00
              0.879553012769592E+00
             -0.116892849598274E+01
             -0.280705905833547E+00
             -0.325787959975643E+00
              0.558095159894428E+00
              0.124398111177557E+00
              0.738060408086829E-01
             -0.294349942732928E+00
              0.108903023049773E+01
             -0.124819803766494E+01
              0.128258654069361E+00
              0.122497621939159E+01
             -0.751695709155395E+00
              0.799130073741807E-01
              0.458559615340697E-01
             -0.131340441375608E+01
             -0.754509501788496E+00
             -0.235233364630596E-01
              0.643718741109189E+00
              0.715319008797921E+00
              0.951499092600461E-01
             -0.253942212108010E+00
              0.334907382308558E+00
             -0.811973426500680E+00
             -0.107998807947324E+00
             -0.107834648574004E+01
             -0.541520867869534E+00
              0.102971230804373E+01
             -0.623752728534874E+00
              0.144066390917736E+01
             -0.485258135222985E+00
              0.669622943835704E+00
              0.519072196972630E+00
             -0.121886999754622E+01
             -0.506926781212783E+00
              0.205522115087383E+00
             -0.863611861106660E+00
             -0.848797074327171E+00
             -0.182888998401530E+01
             -0.112527660528223E+01
             -0.100207252028068E+01
             -0.927438215632401E+00
              0.342339930429869E-03
              0.520162684368298E+00
              0.254667607414652E+00
              0.580252302996175E+00
             -0.119700665413061E+01
              0.267215095305652E+00
              0.599730610487236E+00
             -0.140495302922825E+01
             -0.115203650067267E+01
             -0.799709142291897E+00
             -0.689472927027447E+00
              0.281379810266603E+00
             -0.711365202419305E-01
             -0.847910496324851E+00
              0.554664283824360E+00
             -0.481958004443122E+00
              0.106945599975045E+01
             -0.179615624639083E+01
              0.131820064668600E+01
             -0.255639734618511E+00
             -0.905027346747506E+00
             -0.563343853404479E+00
             -0.258735554855276E-01
              0.101171630682733E+01
             -0.141214652801276E+01
             -0.256453386968083E+00
             -0.333942283417515E+00
              0.822137359353584E+00
              0.163230816731303E+01
             -0.205552203631409E+01
              0.186757799845958E+01
              0.773606946487830E+00
             -0.155701589494631E+01
             -0.627209299324058E+00
              0.161787010589464E+01
              0.115746519907812E+01
             -0.431450247098015E+00
             -0.153458121272198E+00
              0.385418860070574E+00
              0.160233125667244E+01
             -0.122659495123207E+01
              0.250423501744396E+00
             -0.159207473646218E+00
              0.528054721226342E+00
             -0.142752197506837E+01
             -0.388857920949240E-01
             -0.531625811169982E+00
              0.991679768017423E+00
              0.777880772459133E+00
             -0.182664362724789E+01
             -0.958220585861104E+00
             -0.417191734289364E+00
             -0.910023201645340E+00
             -0.249454011124187E+00
             -0.351578778883475E+00
              0.936306887091935E+00
              0.883564689501934E+00
             -0.179495716201652E-01
             -0.899640536533583E+00
             -0.176698809534012E+01
              0.105193747983935E+01
             -0.929789859502661E+00
             -0.779150126845825E+00
              0.155528544487624E+00
             -0.765887260279379E+00
             -0.821790309758291E+00
             -0.645026288075286E+00
             -0.106295207477701E+01
             -0.480831384810939E+00
             -0.101095861012362E+01
              0.111356286353210E+01
              0.118667364332149E+01
             -0.238498773976046E+00
             -0.417664737792471E+00
              0.746862571923792E-01
              0.864058366712996E+00
             -0.172022165154469E+01
             -0.480012501480631E+00
              0.101118317648163E+01
              0.147606499558471E+01
             -0.193610304384152E+00
              0.206020330482682E+00
              0.107064450633069E+01
              0.310426619653347E+00
              0.519147686628978E-01
             -0.791164681819323E+00
              0.283126579416320E+00
             -0.655829925829327E+00
             -0.134370225801858E+00
             -0.439197786290945E+00
             -0.282797851693664E+00
              0.505551294433687E+00
              0.161842550367488E+01
             -0.158012675851791E+00
              0.353561291118685E-01
             -0.186525173709767E+01
             -0.365417443449291E+00
             -0.721375852902549E+00
             -0.333304953084799E-01
             -0.983051411112811E+00
              0.186282691049950E+01
              0.177690229850740E+01
              0.382716507772560E+00
             -0.490368856301823E+00
              0.383626040828177E+00
              0.399765612562594E+00
             -0.943571501840568E+00
             -0.193698845567368E+00
              0.414331633901483E+00
              0.247346501119093E+00
              0.103057825050505E+01
              0.787598613797470E+00
             -0.424175897282142E+00
              0.424638531273531E+00
             -0.198705628787550E+01
             -0.282683228645029E-01
              0.184256869624725E+01
              0.389521489646858E+00
             -0.589761572871303E-01
              0.537122011944433E+00
             -0.482509435897451E+00
              0.176862410140733E+01
             -0.425784839423531E+00
              0.156658527216969E+01
              0.785962742430920E+00
             -0.917890634204660E+00
              0.682861887270821E+00
             -0.572120082824471E+00
             -0.139075784609737E+01
             -0.168599232115033E+00
             -0.109983892075149E+01
             -0.106035203189256E+01
             -0.272429803701901E-01
              0.777103405208976E+00
             -0.299123252064280E+00
             -0.617187048849891E+00
              0.151582949181798E+00
             -0.132822280041077E+01
             -0.598062325883141E-01
             -0.178731548129260E+01
              0.106256646471095E+01
             -0.835655758172056E-01
             -0.993592867840861E+00
             -0.312207646736196E+00
              0.360141034315142E+00
             -0.786127174077003E+00
             -0.896342646887806E+00
              0.186490386350319E+01
             -0.576867798249977E+00
             -0.754017680609586E+00
              0.659635671349571E+00
             -0.461427115277971E+00
              0.117974431718243E+01
             -0.475963822501875E-01
              0.520021495581187E-01
              0.225326913959350E+01
             -0.162229130425851E+00
             -0.791971401090228E+00
             -0.983395000668608E+00
             -0.104363604229778E+01
             -0.770680403528424E+00
              0.596102482009664E+00
              0.647303760001980E+00
              0.579388252646299E+00
              0.151909596058025E+01
              0.116199273950307E+00
              0.478573094794526E+00
             -0.117029502521438E+01
              0.393861919009355E-01
             -0.308666193813839E+00
             -0.562216616295492E+00
             -0.152875413439773E+00
              0.667517787665604E+00
              0.776585704936894E+00
             -0.540263492858339E-01
              0.277100805850679E+00
              0.554285822030214E+00
              0.694096112923433E+00
             -0.483597620339761E+00
             -0.194193757937718E+00
              0.763639004682926E-02
             -0.534551783428782E+00
             -0.538202283847440E-01
             -0.832182855711886E+00
              0.161981487791410E+01
              0.125780413696289E+01
             -0.382255203715639E+00
              0.345557011559236E+00
             -0.123294285491066E+00
             -0.658498327064632E+00
              0.766333210672830E+00
             -0.194361792989563E+00
              0.752405535847736E+00
             -0.970550929261158E+00
              0.364836133908683E+00
             -0.157546169996543E+00
             -0.109862586404173E+01
             -0.494925189733920E+00
              0.491738718077141E+00
             -0.201194010966853E+01
              0.785595718829285E+00
              0.948759062622116E+00
             -0.210660227681641E+00
             -0.158294988445999E+00
             -0.813374901055486E-01
              0.548477936119982E+00
             -0.697949240679915E+00
              0.627440359851088E+00
              0.661407169952560E+00
             -0.183482329962543E+01
             -0.755261953653442E+00
              0.495247626655621E+00
             -0.255137383085722E+00
              0.101347640173681E+01
             -0.126429819201686E+01
             -0.221843359867357E+00
             -0.812493397149188E+00
             -0.267003998324082E+01
              0.161916545078782E+01
             -0.121713930817415E+01
             -0.138328869624520E+01
              0.128110821766186E+00
              0.263352864941575E+01
              0.150299443114544E+00
             -0.678640980201600E+00
             -0.279639776243972E-01
             -0.734449887041775E-01
             -0.174543382435931E+01
             -0.111756959398499E+01
              0.175998096864712E+01
             -0.255735411998441E+00
             -0.732181061912832E+00
              0.992385118533271E+00
             -0.668495222704408E+00
              0.672100619889486E+00
              0.984140208369271E+00
             -0.107377664156958E+01
             -0.575153711958686E+00
             -0.654477995764056E+00
             -0.360544308673816E+00
             -0.394499828017350E+00
             -0.389820575371424E+00
              0.413476892648644E+00
             -0.726851542360811E+00
              0.561148907399098E+00
              0.111837564816163E+01
             -0.122457874150017E+00
             -0.429803507378567E+00
              0.311743567013493E+00
              0.111071320268760E+01
              0.113234267046060E+01
              0.224226915138267E+00
             -0.225956045919816E+00
             -0.233470123000577E+00
             -0.108843985310844E+01
              0.827790633565017E+00
             -0.501659769295707E+00
              0.464607917346481E+00
             -0.267926805891671E+00
              0.528413935890364E+00
              0.351725242679348E+00
             -0.166928850679976E+01
             -0.516870650539305E+00
             -0.160508554421650E+01
             -0.826246785481674E+00
              0.827003575776923E-01
             -0.405837659365403E+00
              0.726857811520682E+00
             -0.583347988050838E+00
              0.767778375170076E-01
              0.144527583155138E+00
              0.142738191585886E+01
              0.738497618176678E+00
             -0.669056132477718E+00
             -0.500780439757689E-01
              0.312634067711935E+00
              0.755590284805408E+00
             -0.120595040778175E-01
              0.116226204822896E+01
              0.557888112746925E+00
              0.183951078862001E+01
              0.713211383169901E-01
              0.126121092166989E+01
             -0.567635595972477E+00
             -0.801091588516383E+00
              0.396711433037495E-01
              0.223608225660332E+00
              0.454029112732805E+00
             -0.434208031007771E+00
             -0.218356929303287E+00
              0.474858429742950E+00
             -0.969174891426801E+00
             -0.123130758467893E+01
              0.162930764583160E+01
             -0.130449472227282E+00
             -0.740208101285165E+00
             -0.111398415763540E+00
             -0.283905938435325E+00
              0.910895550734355E+00
              0.737924107753554E+00
             -0.420432009076430E+00
              0.929629108444630E-03
             -0.527298251869683E+00
             -0.729986521163717E+00
             -0.484196355348502E+00
             -0.199826512610506E+01
              0.317581615719424E-01
             -0.131584671805644E+01
             -0.120956426036935E+01
             -0.761630352660021E+00
              0.459703107939630E+00
             -0.787357817773737E+00
              0.492494053652789E+00
             -0.133330683818804E+01
             -0.114502649019954E-02
             -0.866261685786844E+00
              0.165900496254911E+00
              0.155670332150310E+00
              0.728158416487350E+00
             -0.425111415433465E+00
             -0.381994619909452E+00
              0.660929170432218E+00
              0.121318939549204E+01
              0.659756862318253E+00
              0.227777492719103E+00
             -0.153013922359499E+01
             -0.326816745648893E+00
             -0.569346531414183E+00
             -0.125708675687184E+01
              0.882036795427361E+00
             -0.706686483466090E+00
             -0.156325958431924E+00
             -0.570757081204357E+00
             -0.201756969095929E+01
              0.114913235811485E+01
             -0.372300275403056E+00
              0.790162901725768E+00
             -0.152164722061893E+01
              0.133937669266549E+01
              0.126589043954939E+00
             -0.520767577061766E+00
              0.221591438157257E+00
             -0.405494526039417E+00
             -0.127274957710279E+01
              0.355557162397715E+00
              0.814870581078266E+00
             -0.325468972756759E-01
             -0.702944064615602E+00
             -0.328547097179922E+00
              0.425018608313628E+00
              0.761186368448625E+00
              0.125800450563332E+01
              0.457075434632669E+00
             -0.470262865386792E+00
              0.206063149932687E+01
              0.427245713889658E+00
              0.974520260903391E+00
             -0.344180026448896E+00
              0.605152811802443E+00
              0.491120924740040E+00
             -0.125911030924676E+01
             -0.461777779793786E+00
             -0.825710472028061E+00
             -0.859607440117443E+00
             -0.249485086885446E+00
             -0.163985110128234E+00
             -0.954023365973810E+00
             -0.225670200153156E+01
             -0.547200495103064E+00
              0.274444747595751E+00
              0.116093529709177E+00
              0.330513620037287E+00
              0.817810754985113E+00
              0.204740136783039E+00
              0.643687081259787E+00
             -0.882928617785705E+00
              0.878919750920149E+00
             -0.794324481108617E+00
             -0.136059705336855E+01
              0.417026808727027E+00
             -0.863588027301407E+00
             -0.806255200625205E+00
             -0.325319771727852E+01
             -0.144963815258909E+00
              0.172673538039770E+01
              0.823656133050511E+00
             -0.207782376259843E+00
             -0.216186714471561E+00
              0.919869214107609E+00
              0.129793756686032E+01
             -0.799226409267117E+00
             -0.265326488935028E+00
             -0.745482861478274E+00
             -0.680346354145209E+00
             -0.593330205647729E+00
              0.211092610637885E+00
              0.141934635146417E+01
             -0.132449382870224E+01
             -0.111373483551979E+01
              0.777830186085415E-01
             -0.306249704392632E+00
             -0.351659991084554E+00
             -0.181991661799195E+01
              0.129049002600658E+01
              0.398787931387748E+00
              0.191528614040056E+00
              0.106781091400029E+01
             -0.675618395428942E+00
              0.688289184887908E+00
              0.589293183209890E+00
              0.231599084882443E-01
             -0.169538833699319E+00
              0.164271668165968E+00
             -0.316169800629761E+00
              0.108543206391552E+01
             -0.803701303824918E+00
              0.953258653998012E+00
              0.185302274939898E+00
              0.354234101440770E+00
              0.404088236999645E+00
             -0.165645141455429E+01
              0.213830042212129E+00
             -0.136185803825248E+01
             -0.978371382275003E+00
             -0.970243915685465E+00
             -0.108550851951934E+01
             -0.281236516975980E-03
              0.392938354011355E+00
              0.102203921991449E+01
              0.145777126840165E+00
              0.304471550663517E+00
             -0.141528146908584E+01
             -0.570169090101687E+00
              0.659928304430048E+00
             -0.817546610637285E-01
             -0.746838858502059E-01
             -0.198152254103102E+00
              0.726340478386963E+00
             -0.184891490223951E+01
              0.274337993920257E+00
              0.418615392323935E+00
              0.790995468842406E+00
              0.749060765492249E+00
             -0.115490101639994E+01
              0.333092792648771E+00
              0.136688308674474E+00
              0.141223665105203E+00
              0.128527367809183E+00
             -0.398999251932644E+00
             -0.894365910473544E+00
              0.368956585155713E+00
              0.118268389993274E+01
             -0.112467011025572E-01
              0.282852400492361E+00
              0.252480297218851E+00
             -0.635309960384076E+00
             -0.679257378789624E+00
             -0.251336231770654E+01
             -0.767273769879559E+00
             -0.120437324413324E+01
             -0.126127342872200E+00
             -0.139757266216067E+01
              0.154167792894724E+01
             -0.694783824319941E+00
             -0.112714821376591E+01
             -0.319818882298868E+01
              0.137015436839730E+01
              0.302784789840944E+00
              0.224647075662317E+00
             -0.124538395447985E+01
              0.781827783063527E-01
             -0.343013415118764E+00
             -0.637141726742880E+00
              0.171365921570524E+00
              0.664664491169492E+00
              0.960112788181737E-01
             -0.426742866288889E+00
              0.860642433108456E-01
              0.280450594407444E-01
              0.212596969347409E+00
             -0.136746807527984E+01
              0.150674356796228E+01
             -0.848538173578845E+00
             -0.542793223925571E+00
             -0.106690427090073E+01
             -0.225085762741409E+01
              0.928419966741332E-01
             -0.118764671070674E+01
             -0.365777667261642E+00
              0.626254597587295E+00
             -0.553989125621188E+00
             -0.245552435843599E+00
             -0.268274090550546E+00
             -0.393673180828250E+00
              0.733606265746061E-01
              0.105179845613171E+01
             -0.102066131265543E+01
              0.213383894983590E+01
             -0.523638077108199E+00
              0.659579404816026E+00
             -0.384245479945821E+00
              0.237402725712156E+00
             -0.248480943524810E+00
              0.904081467089508E+00
              0.127542264945702E+01
              0.367103505449043E+00
              0.877479526802731E+00
             -0.591086662127373E+00
             -0.162410751967250E+00
             -0.480859767008514E+00
              0.129670794686191E+01
              0.111708591153102E+01
              0.813322379477231E+00
             -0.255265770171569E+00
             -0.515197058024149E+00
              0.490372433916031E+00
             -0.602390960584291E+00
             -0.297947419192480E+00
             -0.117253041152026E+00
             -0.731470178354961E+00
              0.995665332542106E+00
             -0.230401001333602E+00
              0.730388252708601E+00
              0.467940214901357E+00
              0.308403472676962E+00
             -0.689760399978749E+00
              0.497891657714940E+00
             -0.280880024061756E+00
             -0.139090381017547E+00
             -0.159880015009284E-01
             -0.975258454741470E+00
              0.158066780307476E+01
             -0.542154873741571E+00
              0.276168120414422E-02
              0.506912062825747E+00
              0.434464975207954E+00
              0.158836332427757E+01
             -0.443113476249959E+00
              0.152697291405792E+01
              0.135211116875404E+01
             -0.188726463147471E+01
              0.140854269229904E+00
             -0.372495078751672E+00
              0.247390892563200E+00
              0.870748908114662E-01
              0.442584668844814E+00
              0.131191160075253E+01
              0.204586588752680E+01
             -0.148502886889587E+01
              0.154844289744775E+01
             -0.206411573153776E+01
             -0.177355187103008E+01
             -0.304684510094275E+00
              0.196012198984112E-01
              0.161170997195246E+01
              0.654195397264310E+00
             -0.264637652597064E+00
             -0.168414718887024E+01
              0.136234733499271E+01
             -0.829786412698466E+00
              0.361760844675274E-01
             -0.111623600549908E+00
              0.265173748055390E+01
             -0.447787636241677E+00
             -0.214644809383826E+01
              0.616063912152665E+00
             -0.331033492972881E+01
              0.263865322410568E+00
             -0.787993078911594E+00
             -0.358806444215712E+00
             -0.529137963187235E+00
             -0.121771255544306E+01
              0.742021129866577E+00
             -0.747622248974042E+00
             -0.288231234214832E+00
             -0.153879451149327E+01
             -0.809664179722960E-01
             -0.111324718653824E+01
             -0.158084229628957E+01
             -0.214058191644570E+01
              0.162594491630843E+00
             -0.766349104708659E+00
              0.225092223563145E+00
             -0.283731154106521E+00
             -0.170103151629531E+01
             -0.131531371790093E+01
             -0.116356011624814E+01
             -0.120581084211474E+01
              0.106057014921683E+01
              0.109396056146899E+00
             -0.101662554808017E+01
             -0.519583897888703E+00
             -0.572017810975842E+00
              0.858668849241518E+00
             -0.616906346159417E+00
             -0.822537060936177E-01
             -0.659259867644651E+00
             -0.806723125315991E+00
             -0.857167707407323E+00
              0.826603312669386E+00
             -0.255458586697378E+00
             -0.188330523966492E+01
              0.158320173772343E+01
              0.921671107601422E+00
              0.575448004073404E-01
             -0.167626810436753E+01
             -0.151473190008247E+01
              0.937772242611032E-01
              0.936857522790824E-02
             -0.690959065993049E+00
             -0.883888028974388E+00
              0.605830576865799E+00
             -0.953414112319155E-01
              0.551538431861408E+00
              0.974683863932331E+00
              0.713296434045421E+00
              0.494413158268108E+00
              0.438738334000380E+00
             -0.455745855505371E+00
             -0.318295117007530E+00
             -0.382175187637497E+00
             -0.787198519549424E+00
             -0.953307086054556E+00
             -0.122829283282270E+01
             -0.727299360931802E+00
             -0.264080594529115E+00
             -0.150876800237357E+01
             -0.364832921507519E+00
              0.740247316118697E+00
             -0.174309348030818E+01
              0.765815158896896E+00
              0.613114764873020E+00
             -0.148542832066118E+01
             -0.113400657946654E+01
             -0.476437852101726E+00
              0.243067382222595E+00
             -0.849647814433830E+00
              0.154810678387295E+01
              0.136279875979378E+01
             -0.158282829156269E+01
              0.836678674047553E+00
              0.741331851904228E+00
              0.209266907802573E+00
              0.378718143363031E+00
             -0.871025451963560E+00
             -0.319108422292279E+00
              0.138123914322033E+00
              0.423986176069603E+00
              0.836992036862208E+00
             -0.110276507030774E+01
             -0.233137451764559E+00
              0.326307950774682E+00
              0.225662922335933E+00
             -0.707058170839261E+00
              0.379354419761642E+00
             -0.506160431730494E+00
             -0.362216883820492E+00
             -0.233906440989200E-01
             -0.126478327385898E+01
             -0.977355649873757E-02
             -0.163353648437674E+00
             -0.316311848619059E+00
              0.338611262336793E+00
             -0.107127102415566E+01
              0.120126879915797E+01
             -0.433422458065130E+00
             -0.274992512123141E+01
             -0.175896896637219E+01
              0.703540287218445E+00
             -0.867674766072177E+00
             -0.443096100730035E+00
             -0.467624980624292E+00
             -0.399964221318385E+00
             -0.211961349461582E+01
             -0.895574978477853E-02
             -0.126455937610179E+01
             -0.697329027519691E+00
              0.394314449980945E+00
              0.163215461796383E+01
              0.104254940889561E+00
              0.611739935955988E-01
              0.123069721891781E+01
             -0.120113714713971E+01
              0.564997718729221E+00
              0.117519307315445E+00
             -0.109654091808577E+01
             -0.642284399858894E+00
              0.387541721161243E+00
              0.656662615692152E-01
              0.355866483718159E+00
              0.282344905535229E+00
             -0.478227571551262E+00
             -0.695001094591277E+00
             -0.102404123071124E+01
              0.101644124091834E+01
             -0.139609608315946E+01
             -0.103409464296177E+01
              0.301510350735611E+00
             -0.170995048255817E+01
              0.488389706520360E+00
              0.122523893910639E+01
             -0.245009231637566E+00
              0.423945228946365E+00
             -0.705122199482700E+00
             -0.460730664717836E+00
              0.218561632129090E+00
              0.735941623665387E+00
             -0.744057595267983E+00
              0.452375420235877E+00
             -0.296588053599473E+00
              0.165885174576358E+00
              0.368145141736560E+00
              0.178994996178722E+00
             -0.263739090210272E+00
             -0.206345483208512E-01
              0.225934854765482E+00
              0.575572583342635E+00
             -0.144864720240704E+01
             -0.399949737548226E-01
              0.107691587245618E+01
             -0.179085250162395E+01
              0.672645642049189E+00
             -0.231812253123243E+01
             -0.236652290622150E+00
             -0.290043606019916E+00
             -0.521051955858134E-01
             -0.268871039663698E+00
             -0.564751425949517E+00
             -0.230571068340609E+00
              0.243994690801099E+00
             -0.527777697108765E+00
              0.214670030908928E+00
              0.186057239618264E+01
             -0.115671918920236E+01
             -0.512945441383024E+00
              0.868531165675988E+00
              0.426218935447050E+00
              0.873871764936617E+00
              0.421928709297227E+00
              0.321664069377255E+00
             -0.289018608290792E+00
             -0.100662421019543E+01
             -0.920012687003867E+00
             -0.729783961121164E+00
              0.124864750208360E+00
             -0.869941012570003E+00
             -0.236944380180652E+00
              0.124863343043591E+00
              0.502730850966309E+00
             -0.134791175215729E+00
              0.121287505382621E+01
             -0.136153183488416E+01
             -0.177254167307970E-01
             -0.156680007684558E+00
              0.646018951858797E+00
             -0.870442229593911E+00
             -0.570508057502871E+00
              0.249082237099524E+00
              0.916264849898311E+00
              0.155442514979559E+01
              0.605489954294587E+00
              0.946396159832959E+00
             -0.498831717483992E+00
              0.129517886050963E+01
              0.128500779029042E+01
             -0.178565543876221E-01
              0.612526643687366E+00
              0.767775148224692E+00
             -0.419309203287882E+00
              0.310996332010955E+00
              0.134742153959959E+01
             -0.423424225449432E+00
             -0.122959920067061E+00
             -0.127328128150039E+01
              0.447848825049174E+00
             -0.321173217431647E+00
              0.444027030841534E+00
              0.188130810013241E-01
             -0.796414157700431E+00
              0.928539947717589E+00
              0.802383215427938E+00
             -0.655583832939674E+00
              0.350162257663252E+00
             -0.122985577160738E+01
             -0.111805184627029E+01
              0.509859870493361E+00
             -0.139231363747948E+01
             -0.718585977373373E+00
              0.324143469751270E-02
              0.176009647809570E+01
             -0.464755716259942E+00
             -0.225751434654973E+00
             -0.424696215659208E+00
              0.228211759417212E+01
              0.376879353070395E+00
             -0.869095829767356E+00
              0.145384757294370E+01
              0.127208677898141E+01
              0.671312435916878E+00
              0.163873957605530E+01
              0.179675049969143E+01
             -0.588795789321441E-01
             -0.588081427438363E+00
             -0.498508846049617E+00
              0.569335773929246E+00
              0.803679954011131E+00
             -0.150935146613921E+00
             -0.495993344477609E+00
             -0.116340802609242E+01
             -0.407789000472675E+00
             -0.955187247706489E+00
              0.698950741886048E+00
              0.366241252912868E+00
              0.123103327019695E+01
              0.285851271016753E+00
             -0.469683041673258E+00
             -0.182532623878694E+00
              0.811781290678963E+00
              0.210934936359818E+00
              0.127029103864931E+01
              0.112825160724492E+01
             -0.166844999364963E+00
             -0.185727098544445E+00
             -0.208760779683601E+01
              0.100218927802443E+01
              0.349242910891689E-02
              0.118801267451745E+01
             -0.532397637253367E+00
             -0.135981784094651E+01
              0.394617476223912E+00
              0.149297064786853E+01
             -0.516617970693896E+00
              0.134596227099785E+01
             -0.146583422090289E+01
             -0.537194147504644E+00
             -0.176591707922026E+01
              0.320779494782503E+00
              0.861231467265933E-01
              0.184834182048671E+00
             -0.127705255558808E+01
              0.191582009522847E+01
              0.110350299002784E+01
              0.124037908244569E+00
             -0.113131413505725E+01
              0.413466302518866E+00
             -0.359965791271248E+00
             -0.314592074731465E+00
             -0.568948175535102E+00
              0.333275605601670E+00
             -0.363873149859711E+00
             -0.371419494355299E+00
              0.486033692147643E+00
              0.474767117338966E+00
             -0.183771628338333E+01
              0.407435465954886E+00
              0.135092729966704E+01
              0.866635934197249E+00
             -0.263728533253159E+00
             -0.503124449405987E-01
             -0.749665418913644E+00
              0.113176698449322E+01
              0.173009353562455E+00
             -0.535791242269088E-01
             -0.125702015889994E+00
              0.221637150052324E+01
             -0.159408225046871E+00
              0.436227288779282E+00
              0.152876841457494E+01
              0.195767614771057E+01
              0.121180401172324E+01
              0.793628751128198E+00
             -0.131207103690441E+01
             -0.952153014640570E+00
              0.741839185303612E+00
              0.110438389462249E+00
              0.626509195292190E+00
              0.251168375746232E+00
              0.133406478421196E+01
             -0.162508563836334E+01
             -0.997953134722183E+00
             -0.241809571757848E+00
             -0.178022202422675E+01
              0.397465586761532E+00
              0.956600489395034E+00
             -0.310110653184203E-02
             -0.415290025166769E+00
              0.421908718788662E+00
              0.274038045529729E+01
              0.658465207379098E+00
              0.361930519952953E+00
             -0.960063655465403E+00
             -0.116920300738666E+01
             -0.268328989668468E+00
              0.582645975958759E+00
             -0.118492322966006E+00
              0.542639575210265E+00
              0.725178298534280E+00
             -0.124333104326877E+01
              0.552225839198828E+00
              0.659368725439542E+00
              0.114163314650701E+01
             -0.213202430595500E+00
              0.121093057648681E+00
             -0.141654330563779E+00
             -0.896331535940252E+00
             -0.150420544662134E+01
              0.153361075518344E+01
             -0.212742331263589E+00
             -0.106598273569679E+01
              0.183239836996480E+00
             -0.630352147286122E+00
              0.173213556349057E+01
             -0.467810088042812E+00
             -0.779806316432771E+00
              0.768584209252846E+00
             -0.321254186995517E+00
              0.951975644666700E+00
              0.657808893275780E-01
              0.186976938508048E+01
              0.108317759111018E+01
              0.273496273969201E+00
             -0.810199050481881E+00
              0.588759579459159E+00
             -0.110002159613630E+01
             -0.825066299602697E-01
              0.131603482460768E+01
             -0.513836182056129E+00
             -0.877923974592074E+00
             -0.474725020088343E+00
              0.104680084095170E+01
              0.230623097156953E+00
             -0.165014551257441E+01
              0.699773395061845E+00
              0.108016925932740E+00
              0.233783343202262E+00
             -0.990583547535577E+00
              0.211859656396132E+00
              0.697175044231570E+00
              0.918604124848200E+00
              0.133816960459348E+01
              0.726662080863180E+00
              0.157829426484793E+00
             -0.114088378638027E+01
             -0.850754517524431E+00
             -0.129443228241466E+01
             -0.305432333333329E+00
              0.701639695899400E+00
              0.203609593949561E-02
              0.105608581256612E+01
             -0.653251665173135E+00
              0.350376379636039E+00
             -0.491592761615391E+00
             -0.545323853703394E+00
              0.119930059827771E+01
              0.105904925140165E+00
              0.127693194368956E+01
              0.110562483766454E+00
              0.387575244224472E+00
             -0.325132036738541E+00
              0.121767402556554E+01
             -0.346964632959949E+00
              0.282860021017195E-02
             -0.159089773112786E+01
             -0.137297602840934E+00
              0.140862703575734E+01
              0.129756876531703E+01
              0.517002837811486E+00
             -0.326120350710957E+00
              0.118081866135287E+00
             -0.495593327459601E+00
             -0.426493275514671E+00
              0.183457421149206E+01
              0.171130876488391E+00
             -0.600380388897202E+00
             -0.215270801768732E+01
             -0.844178877481057E+00
             -0.774078388931934E+00
             -0.122728217977940E+01
             -0.121853653806749E+01
             -0.143461823868385E+01
             -0.912483381347303E+00
             -0.548515921736939E+00
             -0.982435890051200E+00
              0.895236580698296E+00
             -0.338757453231992E+00
             -0.167870012430519E+01
              0.841644863454157E+00
             -0.692798615890631E+00
             -0.160889119644926E+01
              0.205367021391934E+01
             -0.526147282253923E+00
              0.294535010048885E+00
              0.757039181053100E+00
              0.301369842039421E+00
              0.542544175213256E+00
              0.248214042112873E-01
              0.312941737562444E-01
             -0.265941365156628E+00
             -0.150225835507164E+01
              0.220250093573990E+00
             -0.242081833881736E+01
              0.149591972898421E+01
             -0.817472725056022E+00
             -0.397871071720523E+00
             -0.434368261357370E+00
              0.467708285465253E+00
             -0.317511575977734E+00
              0.567914400755785E+00
             -0.120152299862543E+01
              0.725496047324929E+00
              0.884591608358671E+00
              0.160851528637666E+00
              0.191699204038503E+00
              0.440511070060909E+00
              0.211505396615109E+00
              0.597836744515826E+00
             -0.740878152115747E-01
             -0.154950527140716E+01
              0.192842154087400E+00
             -0.716042737464162E+00
             -0.611318319557066E-01
              0.115865028959245E+01
             -0.161647830840165E+01
              0.472321261646949E-01
              0.778177706607242E-01
              0.197571640136847E+00
              0.613721436957146E+00
             -0.253785817278415E+00
              0.171722063386551E+01
              0.719255511640608E+00
             -0.285239748859105E+00
             -0.166974836246652E+00
              0.137997051304921E+00
              0.159650831342350E+01
             -0.990545295762857E+00
             -0.205081676724701E+01
              0.595336997142568E+00
             -0.164912115680067E+00
             -0.327141574679706E+00
              0.397692111296064E+00
              0.152705312207694E+01
              0.835116415333522E+00
             -0.342458968336382E+00
             -0.111403474448301E+01
             -0.273886754471490E+00
              0.554230247459466E+00
             -0.375031874835640E+00
             -0.155736564005193E+01
             -0.207828498081257E+00
             -0.200783028570354E+01
             -0.106479317105241E+01
              0.179425329208428E+01
             -0.107190299947917E+01
             -0.146492558295881E+01
             -0.107866225497348E+01
             -0.825193091717045E+00
              0.701600361205356E+00
              0.174301709294273E+01
             -0.215231991845188E+00
              0.541060095606402E+00
             -0.425378544511854E+00
             -0.139039415804367E+01
              0.105924438310182E+01
             -0.995821962212698E+00
              0.493736008670730E+00
              0.560973508483717E+00
             -0.335096554081391E+00
              0.735523618847598E+00
              0.772657873160032E+00
              0.249917810776033E+01
             -0.191439909626656E+00
             -0.118689594325118E+01
             -0.136057745051647E+01
             -0.405210264056874E+00
             -0.883858577160340E+00
              0.187346493471504E+01
             -0.923077499788122E+00
              0.211575921489724E+00
              0.347534206875473E-01
             -0.382338796789626E+00
             -0.176974136146048E+01
             -0.134467262102400E+00
              0.205497892316947E+01
              0.474975889973841E+00
              0.150392786138756E+00
             -0.122473439467847E+01
             -0.110570781666339E+01
             -0.391270266943321E+00
              0.919116821237967E+00
             -0.551409375482557E+00
              0.204406669658614E+01
             -0.988078279851020E+00
              0.398407660312347E+00
             -0.249741728019483E+00
             -0.125084340576628E+01
              0.147646102776728E+00
             -0.116742024581776E+01
             -0.151030525459250E+01
              0.237614218476114E+00
              0.288450330841421E-01
              0.100097062425875E+01
              0.562917824603511E+00
             -0.721432864412054E+00
              0.440514390030815E+00
             -0.183078462682904E+01
             -0.953071868453989E+00
              0.190155623267743E+01
              0.491563714324097E-01
             -0.882437105245355E-01
             -0.488667526120467E+00
             -0.503160720503004E-02
             -0.261801088142777E+00
              0.189667392376430E+01
              0.843528095019699E+00
             -0.157944070209204E+00
              0.222686022433152E-01
             -0.770167394764893E+00
             -0.236270845703228E+00
             -0.125413266700692E+01
              0.106138675046088E+01
              0.134929652831608E+00
              0.146488511355106E+00
              0.397849679003250E+00
             -0.300950430123596E+00
             -0.476811392361254E+00
              0.209457405289861E+00
             -0.229799236079012E+01
             -0.197458839403785E+00
             -0.204679901169506E+00
             -0.120097494311070E+00
              0.973243433806778E+00
              0.133072038316618E+01
              0.373967619937044E+00
             -0.190108308698220E+01
              0.130473366648110E+01
             -0.496740240646395E+00
             -0.755279213144810E+00
             -0.178560296976714E+01
             -0.533818169170586E+00
              0.130895155106983E+01
              0.696859164288181E+00
              0.343229024079452E+00
              0.728305647469888E+00
             -0.114238933725606E+01
             -0.101552368118787E+01
              0.129288837199583E+01
              0.855268935796673E+00
              0.950517143155039E+00
              0.203243856625021E+00
              0.221872366774921E+00
              0.108026173956602E+01
              0.201475571806372E+01
             -0.346693132701067E+00
              0.832357008941699E+00
             -0.638509308206904E+00
             -0.896418922892969E+00
             -0.713585732297560E+00
             -0.699085812857104E+00
             -0.288288395468153E+00
             -0.967738434631229E+00
             -0.378267686016559E+00
             -0.262504426633013E+01
              0.636417352979778E+00
              0.598634853501216E+00
             -0.705949734047011E-01
             -0.745575489498181E+00
             -0.359990861732064E+00
             -0.116592532841836E+01
              0.102060633346771E+00
              0.161312477685592E+01
             -0.383756377357193E+00
             -0.390752070825163E+00
              0.388162702282161E+00
             -0.104639618663271E+01
              0.174824197836375E+01
              0.310343167916935E+00
              0.107863734538830E+00
              0.106158001599431E+01
             -0.142115771403873E+00
              0.121231997026653E+01
              0.421318836945157E+00
             -0.184900632526119E-01
              0.283746216338773E+00
             -0.219485681777572E+00
              0.136441567550830E+01
              0.140924343779474E+00
              0.450033394129250E+00
             -0.183873466255966E+00
              0.212920706757976E+00
             -0.192631329610000E+01
             -0.710931653186192E+00
             -0.102813085569053E+01
              0.101837305987372E+01
             -0.740374561421961E+00
             -0.111875003876303E+01
              0.122346718622485E+01
             -0.281945138277990E+00
              0.839692420315595E+00
             -0.181411689914028E+01
              0.341249546222901E+00
              0.713025970081935E-01
              0.145585514565589E+00
             -0.292891054632051E+00
             -0.132138858189126E+00
              0.102525992816127E+01
              0.571716812412024E-01
             -0.109649992117642E+01
             -0.455829773096583E+00
              0.362364626215421E+00
             -0.235436890050886E+01
             -0.176267342775413E+01
              0.152465728972393E-01
              0.346824920390205E+00
             -0.106351424649290E+01
              0.368235426893531E-01
              0.209394463075690E+01
              0.578726894603182E+00
             -0.110047955856265E+01
              0.155899490304777E+00
             -0.220206155242936E+00
              0.273147425710642E+00
             -0.742347542766696E+00
              0.486434320767493E+00
              0.473132488896635E+00
             -0.184299329293628E+00
              0.231190447113935E+01
             -0.674228181803196E-01
             -0.626158619031632E+00
              0.660809773034206E+00
              0.879445288546586E+00
             -0.643765077404154E+00
             -0.126475799386685E-01
              0.201399266525624E+01
             -0.236346902219751E-01
              0.105898411019296E+01
              0.338337596970140E+00
             -0.131541661385869E+00
             -0.296162660491561E+00
              0.956914708345386E+00
             -0.122320034733869E+01
             -0.349428133323890E-01
             -0.422115222360181E+00
             -0.814947050745849E+00
              0.222054265887222E+00
              0.518144914254054E+00
             -0.548526451335061E-01
             -0.318477663454075E-01
             -0.860799961505835E+00
              0.298054615506185E+00
             -0.258811170595745E-01
             -0.439748039796191E+00
             -0.405543085144848E+00
              0.329519233140806E+00
              0.858086082389065E-02
             -0.798132805370259E+00
             -0.220119806663589E+01
              0.137468731533780E+00
              0.281561732191546E+00
             -0.100786450262884E+01
             -0.526846696970940E+00
              0.168482864954666E+01
              0.281673598643220E+00
              0.928572139169026E+00
              0.236716576170138E+00
              0.827994234034776E+00
              0.404179611394202E-01
             -0.814298620167097E+00
             -0.276057398265826E+00
              0.100753966828797E+00
              0.653126427686370E+00
              0.150490080751150E+01
              0.101102130644656E+01
              0.647676275135245E-01
              0.227447183862586E+00
              0.124466798446336E+01
              0.584655348909063E+00
             -0.140894550652311E+01
             -0.568702892380136E+00
              0.212378372486157E+00
              0.213636414128602E+00
              0.515570788467556E+00
             -0.104143855629718E+01
              0.801297672169439E-01
              0.856805164932756E+00
              0.995489623195261E+00
             -0.862523952501407E+00
              0.830612037351166E-01
             -0.543751415884719E-01
             -0.443637078154853E+00
             -0.497473454679352E+00
             -0.217450488710295E+00
             -0.286670618748663E+00
              0.239216401128242E+00
              0.862019455936480E+00
             -0.670392047396741E+00
              0.166314361713686E+01
              0.677530161650115E+00
              0.543108652974799E+00
              0.774267368588942E+00
              0.485522759710763E+00
              0.738317511891082E+00
              0.113929234556556E+01
             -0.973456596256381E+00
              0.128729403555914E+01
             -0.234093799648786E+01
              0.645105672095147E+00
             -0.214651477508997E+01
              0.164472912740872E+01
              0.161227102307013E+01
             -0.165217584530851E+00
             -0.951564779531904E+00
             -0.888083646692695E+00
             -0.108660992972966E+01
             -0.135670502240714E+01
              0.111581695072530E+01
              0.878103744263736E+00
              0.498787401995640E+00
              0.503685149937761E+00
              0.940045381533084E+00
             -0.846836370797542E+00
             -0.289347551993081E+00
              0.108270838342040E+01
             -0.248404951359330E+00
              0.101668727196482E+01
              0.160384824034737E+01
             -0.798910141547506E-01
             -0.155758220676160E+01
              0.129958003501798E+00
              0.292221721411084E-01
             -0.215540933468139E+00
              0.684714200312806E-01
             -0.131861215719400E+01
             -0.142552907570239E+00
              0.298104156287566E+00
              0.309579793700274E+00
              0.103407186648457E+01
             -0.874014508583578E+00
              0.102252457936638E+01
             -0.781032338600809E+00
              0.574771986557579E+00
              0.905394202594659E+00
 
 BEEF-vdW xc energy contributions
           1 :   -14.2625888722128     
           2 :    11.6905918184999     
           3 :   -7.97349401916917     
           4 :    4.46350196261476     
           5 :   -1.82851885293536     
           6 :   0.226694130686505     
           7 :   0.474619233072707     
           8 :  -0.582738723240226     
           9 :   0.449515417723324     
          10 :  -0.349291519282104     
          11 :   0.385032439894237     
          12 :  -0.504109194502668     
          13 :   0.592040986185784     
          14 :  -0.571321612039934     
          15 :   0.435305106783684     
          16 :  -0.239931874410747     
          17 :   6.412198392573032E-002
          18 :   3.335327145972755E-002
          19 :  -4.444492375279907E-002
          20 :   4.909706911846001E-003
          21 :   3.349833956894699E-002
          22 :  -3.738790816063542E-002
          23 :   7.617804688237584E-003
          24 :   2.880026804812630E-002
          25 :  -4.426211552283021E-002
          26 :   2.724223408345239E-002
          27 :   1.076291354229397E-002
          28 :  -4.714156970104355E-002
          29 :   6.731173526790712E-002
          30 :  -7.148324101898140E-002
          31 :   -1.95491960686953     
          32 :   -1.21691528667808     

     Writing output data file ./pwscf.save/
 
     init_run     :     68.39s CPU     71.17s WALL (       1 calls)
     electrons    :    574.82s CPU    625.28s WALL (       1 calls)
     forces       :     28.62s CPU     31.16s WALL (       1 calls)

     Called by init_run:
     wfcinit      :      2.36s CPU      2.44s WALL (       1 calls)
     potinit      :     56.75s CPU     58.83s WALL (       1 calls)
     hinit0       :      7.54s CPU      7.70s WALL (       1 calls)

     Called by electrons:
     c_bands      :     86.39s CPU     87.48s WALL (      16 calls)
     sum_band     :     46.43s CPU     53.18s WALL (      16 calls)
     v_of_rho     :    345.50s CPU    378.07s WALL (      17 calls)
     newd         :     17.25s CPU     24.13s WALL (      17 calls)
     PAW_pot      :      2.16s CPU      2.16s WALL (      17 calls)
     mix_rho      :    127.85s CPU    133.30s WALL (      16 calls)
     vdW_kernel   :     33.46s CPU     33.46s WALL (       1 calls)

     Called by c_bands:
     init_us_2    :      1.68s CPU      1.71s WALL (      33 calls)
     regterg      :     82.74s CPU     83.83s WALL (      16 calls)

     Called by *egterg:
     rdiaghg      :      0.02s CPU      0.02s WALL (      87 calls)
     h_psi        :     74.27s CPU     74.30s WALL (      88 calls)
     s_psi        :      2.30s CPU      2.30s WALL (      88 calls)
     g_psi        :      0.27s CPU      0.27s WALL (      71 calls)

     Called by h_psi:
     h_psi:calbec :      1.68s CPU      1.68s WALL (      88 calls)
     vloc_psi     :     69.79s CPU     69.80s WALL (      88 calls)
     add_vuspsi   :      2.34s CPU      2.34s WALL (      88 calls)

     General routines
     calbec       :      2.18s CPU      2.18s WALL (     108 calls)
     fft          :    301.01s CPU    301.05s WALL (    2932 calls)
     ffts         :     54.29s CPU     54.29s WALL (     539 calls)
     fftw         :     67.57s CPU     67.57s WALL (     668 calls)
 
     Parallel routines
 
     PWSCF        :  20m33.32s CPU  22m33.08s WALL

 
   This run was terminated on:  17:13:51  20Dec2022            

=------------------------------------------------------------------------------=
   JOB DONE.
=------------------------------------------------------------------------------=
