
     Program PWSCF v.6.7MaX starts on  3Jan2023 at 22:55:28 

     This program is part of the open-source Quantum ESPRESSO suite
     for quantum simulation of materials; please cite
         "P. Giannozzi et al., J. Phys.:Condens. Matter 21 395502 (2009);
         "P. Giannozzi et al., J. Phys.:Condens. Matter 29 465901 (2017);
          URL http://www.quantum-espresso.org", 
     in publications or presentations arising from this work. More details at
     http://www.quantum-espresso.org/quote

     Parallel version (MPI), running on     1 processors

     MPI processes distributed on     1 nodes
     Reading input from ch2cho-gas-ensemble.in
Warning: card &CELL ignored
Warning: card / ignored

     Current dimensions of program PWSCF are:
     Max number of different atomic species (ntypx) = 10
     Max number of k-points (npk) =  40000
     Max angular momentum in pseudopotentials (lmaxx) =  3
     file C.pbe-n-kjpaw_psl.1.0.0.UPF: wavefunction(s)  2S 2P renormalized
     file O.pbe-nl-kjpaw_psl.1.0.0.UPF: wavefunction(s)  2S 2P renormalized
     file H.pbe-kjpaw_psl.1.0.0.UPF: wavefunction(s)  1S renormalized

     **************************************************************************
     Initializing libbeef V0.1.2 with the BEEF-vdW functional.
     Citation: Wellendorff et al., PRB 85, 235149 (2012).
     **************************************************************************


     IMPORTANT: XC functional enforced from input :
     Exchange-correlation= BEEF-VDW
                           (   1   4  43  14   2   0   0)
     Any further DFT definition will be discarded
     Please, verify this is what you really want


     gamma-point specific algorithms are used

     Subspace diagonalization in iterative solution of the eigenvalue problem:
     a serial algorithm will be used

 
     G-vector sticks info
     --------------------
     sticks:   dense  smooth     PW     G-vecs:    dense   smooth      PW
     Sum       36293   36293   9057              4654741  4654741  581753
 


     bravais-lattice index     =            0
     lattice parameter (alat)  =      43.5341  a.u.
     unit-cell volume          =   74139.6028 (a.u.)^3
     number of atoms/cell      =            6
     number of atomic types    =            3
     number of electrons       =        17.00
     number of Kohn-Sham states=           13
     kinetic-energy cutoff     =      60.0000  Ry
     charge density cutoff     =     240.0000  Ry
     scf convergence threshold =      1.0E-06
     mixing beta               =       0.7000
     number of iterations used =            8  local-TF  mixing
     Exchange-correlation= BEEF-VDW
                           (   1   4  43  14   2   0   0)

     celldm(1)=  43.534105  celldm(2)=   0.000000  celldm(3)=   0.000000
     celldm(4)=   0.000000  celldm(5)=   0.000000  celldm(6)=   0.000000

     crystal axes: (cart. coord. in units of alat)
               a(1) = (   1.000000   0.000000   0.000000 )  
               a(2) = (   0.000000   1.002555   0.000000 )  
               a(3) = (   0.000000   0.000000   0.896300 )  

     reciprocal axes: (cart. coord. in units 2 pi/alat)
               b(1) = (  1.000000  0.000000  0.000000 )  
               b(2) = (  0.000000  0.997452  0.000000 )  
               b(3) = (  0.000000  0.000000  1.115698 )  


     PseudoPot. # 1 for C  read from file:
     /users/bkreitz1/quantum-espresso/potentials/C.pbe-n-kjpaw_psl.1.0.0.UPF
     MD5 check sum: a169b0ebad56f5ec0d79c4633f80bf22
     Pseudo is Projector augmented-wave + core cor, Zval =  4.0
     Generated using 'atomic' code by A. Dal Corso  v.6.7MaX
     Shape of augmentation charge: PSQ
     Using radial grid of 1073 points,  4 beta functions with: 
                l(1) =   0
                l(2) =   0
                l(3) =   1
                l(4) =   1
     Q(r) pseudized with 0 coefficients 


     PseudoPot. # 2 for O  read from file:
     /users/bkreitz1/quantum-espresso/potentials/O.pbe-nl-kjpaw_psl.1.0.0.UPF
     MD5 check sum: eef08af8b58d9ec80f8fdb78829eb7cf
     Pseudo is Projector augmented-wave + core cor, Zval =  6.0
     Generated using 'atomic' code by A. Dal Corso  v.6.7MaX
     Shape of augmentation charge: PSQ
     Using radial grid of 1095 points,  4 beta functions with: 
                l(1) =   0
                l(2) =   0
                l(3) =   1
                l(4) =   1
     Q(r) pseudized with 0 coefficients 


     PseudoPot. # 3 for H  read from file:
     /users/bkreitz1/quantum-espresso/potentials/H.pbe-kjpaw_psl.1.0.0.UPF
     MD5 check sum: ae98473e6dc62675f0d0baffdab24f65
     Pseudo is Projector augmented-wave, Zval =  1.0
     Generated using 'atomic' code by A. Dal Corso  v.6.7MaX
     Shape of augmentation charge: PSQ
     Using radial grid of  929 points,  2 beta functions with: 
                l(1) =   0
                l(2) =   0
     Q(r) pseudized with 0 coefficients 


     atomic species   valence    mass     pseudopotential
        C              4.00    12.01100     C ( 1.00)
        O              6.00    15.99900     O ( 1.00)
        H              1.00     1.00800     H ( 1.00)

     No symmetry found



   Cartesian axes

     site n.     atom                  positions (alat units)
         1           C   tau(   1) = (   0.5195766   0.4756681   0.4417330  )
         2           C   tau(   2) = (   0.4873662   0.5270104   0.4519923  )
         3           O   tau(   3) = (   0.4341086   0.5270001   0.4624259  )
         4           H   tau(   4) = (   0.5659650   0.4773222   0.4342780  )
         5           H   tau(   5) = (   0.4979150   0.4339998   0.4430684  )
         6           H   tau(   6) = (   0.5116159   0.5683647   0.4517826  )

     number of k points=     1  Gaussian smearing, width (Ry)=  0.0050
                       cart. coord. in units 2pi/alat
        k(    1) = (   0.0000000   0.0000000   0.0000000), wk =   2.0000000

     Dense  grid:  2327371 G-vectors     FFT dimensions: ( 216, 216, 200)

     Estimated max dynamical RAM per process >       3.65 GB

     Initial potential from superposition of free atoms

     starting charge   16.99989, renormalised to   17.00000

     negative rho (up, down):  1.654E-02 0.000E+00


     %%%%%%%%%%%%%%%%%%%%%%%%%%%%%%%%%%%%%%%%%%%%%%%%%%%%%%%%%%%%%%%%%%%%%%%%
     %                                                                      %
     % You are using vdW-DF, which was implemented by the Thonhauser group. %
     % Please cite the following two papers that made this development      %
     % possible and the two reviews that describe the various versions:     %
     %                                                                      %
     %   T. Thonhauser et al., PRL 115, 136402 (2015).                      %
     %   T. Thonhauser et al., PRB 76, 125112 (2007).                       %
     %   K. Berland et al., Rep. Prog. Phys. 78, 066501 (2015).             %
     %   D.C. Langreth et al., J. Phys.: Condens. Matter 21, 084203 (2009). %
     %                                                                      %
     %                                                                      %
     % If you are calculating the stress with vdW-DF, please also cite:     %
     %                                                                      %
     %   R. Sabatini et al., J. Phys.: Condens. Matter 24, 424209 (2012).   %
     %                                                                      %
     %%%%%%%%%%%%%%%%%%%%%%%%%%%%%%%%%%%%%%%%%%%%%%%%%%%%%%%%%%%%%%%%%%%%%%%%


     Starting wfcs are   15 randomized atomic wfcs
     Checking if some PAW data can be deallocated... 

     total cpu time spent up to now is       77.3 secs

     Self-consistent Calculation

     iteration #  1     ecut=    60.00 Ry     beta= 0.70
     Davidson diagonalization with overlap
     ethr =  1.00E-02,  avg # of iterations =  5.0

     negative rho (up, down):  1.343E-02 0.000E+00

     total cpu time spent up to now is      116.9 secs

     total energy              =     -83.98722795 Ry
     estimated scf accuracy    <       0.67168086 Ry

     iteration #  2     ecut=    60.00 Ry     beta= 0.70
     Davidson diagonalization with overlap
     ethr =  3.95E-03,  avg # of iterations =  2.0

     negative rho (up, down):  1.203E-02 0.000E+00

     total cpu time spent up to now is      154.0 secs

     total energy              =     -83.98061050 Ry
     estimated scf accuracy    <       0.15857371 Ry

     iteration #  3     ecut=    60.00 Ry     beta= 0.70
     Davidson diagonalization with overlap
     ethr =  9.33E-04,  avg # of iterations =  5.0

     negative rho (up, down):  1.395E-02 0.000E+00

     total cpu time spent up to now is      192.3 secs

     total energy              =     -83.97720857 Ry
     estimated scf accuracy    <       0.04469964 Ry

     iteration #  4     ecut=    60.00 Ry     beta= 0.70
     Davidson diagonalization with overlap
     ethr =  2.63E-04,  avg # of iterations =  5.0

     negative rho (up, down):  2.343E-02 0.000E+00

     total cpu time spent up to now is      231.3 secs

     total energy              =     -83.97646946 Ry
     estimated scf accuracy    <       0.01380246 Ry

     iteration #  5     ecut=    60.00 Ry     beta= 0.70
     Davidson diagonalization with overlap
     ethr =  8.12E-05,  avg # of iterations = 15.0

     negative rho (up, down):  5.457E-02 0.000E+00

     total cpu time spent up to now is      273.8 secs

     total energy              =     -83.97536525 Ry
     estimated scf accuracy    <       0.00646155 Ry

     iteration #  6     ecut=    60.00 Ry     beta= 0.70
     Davidson diagonalization with overlap
     ethr =  3.80E-05,  avg # of iterations =  6.0

     negative rho (up, down):  9.701E-02 0.000E+00

     total cpu time spent up to now is      314.2 secs

     total energy              =     -83.97638652 Ry
     estimated scf accuracy    <       0.00274225 Ry

     iteration #  7     ecut=    60.00 Ry     beta= 0.70
     Davidson diagonalization with overlap
     ethr =  1.61E-05,  avg # of iterations =  5.0

     negative rho (up, down):  8.197E-02 0.000E+00

     total cpu time spent up to now is      354.4 secs

     total energy              =     -83.97599943 Ry
     estimated scf accuracy    <       0.00102424 Ry

     iteration #  8     ecut=    60.00 Ry     beta= 0.70
     Davidson diagonalization with overlap
     ethr =  6.02E-06,  avg # of iterations = 12.0

     negative rho (up, down):  8.392E-02 0.000E+00

     total cpu time spent up to now is      395.4 secs

     total energy              =     -83.97584086 Ry
     estimated scf accuracy    <       0.00059116 Ry

     iteration #  9     ecut=    60.00 Ry     beta= 0.70
     Davidson diagonalization with overlap
     c_bands:  1 eigenvalues not converged
     ethr =  3.48E-06,  avg # of iterations = 20.0

     negative rho (up, down):  6.287E-02 0.000E+00

     total cpu time spent up to now is      439.3 secs

     total energy              =     -83.97539819 Ry
     estimated scf accuracy    <       0.00023955 Ry

     iteration # 10     ecut=    60.00 Ry     beta= 0.70
     Davidson diagonalization with overlap
     ethr =  1.41E-06,  avg # of iterations = 20.0

     negative rho (up, down):  4.949E-02 0.000E+00

     total cpu time spent up to now is      483.0 secs

     total energy              =     -83.97519973 Ry
     estimated scf accuracy    <       0.00011743 Ry

     iteration # 11     ecut=    60.00 Ry     beta= 0.70
     Davidson diagonalization with overlap
     ethr =  6.91E-07,  avg # of iterations =  7.0

     negative rho (up, down):  3.512E-02 0.000E+00

     total cpu time spent up to now is      522.6 secs

     total energy              =     -83.97515939 Ry
     estimated scf accuracy    <       0.00005800 Ry

     iteration # 12     ecut=    60.00 Ry     beta= 0.70
     Davidson diagonalization with overlap
     ethr =  3.41E-07,  avg # of iterations =  6.0

     negative rho (up, down):  2.858E-02 0.000E+00

     total cpu time spent up to now is      561.7 secs

     total energy              =     -83.97517304 Ry
     estimated scf accuracy    <       0.00002245 Ry

     iteration # 13     ecut=    60.00 Ry     beta= 0.70
     Davidson diagonalization with overlap
     ethr =  1.32E-07,  avg # of iterations =  8.0

     negative rho (up, down):  2.588E-02 0.000E+00

     total cpu time spent up to now is      600.3 secs

     total energy              =     -83.97518136 Ry
     estimated scf accuracy    <       0.00001264 Ry

     iteration # 14     ecut=    60.00 Ry     beta= 0.70
     Davidson diagonalization with overlap
     ethr =  7.43E-08,  avg # of iterations =  3.0

     negative rho (up, down):  2.409E-02 0.000E+00

     total cpu time spent up to now is      637.6 secs

     total energy              =     -83.97518829 Ry
     estimated scf accuracy    <       0.00000357 Ry

     iteration # 15     ecut=    60.00 Ry     beta= 0.70
     Davidson diagonalization with overlap
     ethr =  2.10E-08,  avg # of iterations =  6.0

     negative rho (up, down):  2.249E-02 0.000E+00

     total cpu time spent up to now is      675.4 secs

     total energy              =     -83.97519305 Ry
     estimated scf accuracy    <       0.00000165 Ry

     iteration # 16     ecut=    60.00 Ry     beta= 0.70
     Davidson diagonalization with overlap
     ethr =  9.71E-09,  avg # of iterations =  1.0

     negative rho (up, down):  2.208E-02 0.000E+00

     total cpu time spent up to now is      703.0 secs

     End of self-consistent calculation

          k = 0.0000 0.0000 0.0000 (290877 PWs)   bands (ev):

   -26.3216 -19.2626 -14.7962 -12.5711 -11.3436 -10.3349 -10.0540  -6.4487
    -6.1498  -1.3019  -0.9628  -0.4900  -0.3157

     the Fermi energy is    -6.1498 ev

!    total energy              =     -83.97519286 Ry

     total all-electron energy =      -308.350269 Ry
     estimated scf accuracy    <       0.00000042 Ry
     smearing contrib. (-TS)   =      -0.00282095 Ry
     internal energy E=F+TS    =     -83.97237191 Ry

     The total energy is F=E-TS. E is the sum of the following terms:
     one-electron contribution =    -188.14634596 Ry
     hartree contribution      =      96.82355531 Ry
     xc contribution           =     -19.43441386 Ry
     ewald contribution        =      50.02479140 Ry
     one-center paw contrib.   =     -23.23995880 Ry

     convergence has been achieved in  16 iterations

     negative rho (up, down):  2.208E-02 0.000E+00

     Forces acting on atoms (cartesian axes, Ry/au):

     atom    1 type  1   force =     0.00213662    0.00065226    0.00182064
     atom    2 type  1   force =     0.00055700   -0.00056500    0.00420654
     atom    3 type  2   force =    -0.00072777   -0.00049580   -0.00154167
     atom    4 type  3   force =    -0.00141195   -0.00010654   -0.00085879
     atom    5 type  3   force =    -0.00046299    0.00042144   -0.00146752
     atom    6 type  3   force =    -0.00009091    0.00009365   -0.00215920

     Total force =     0.006305     Total SCF correction =     0.000321

     negative rho (up, down):  2.208E-02 0.000E+00

     negative rho (up, down):  2.208E-02 0.000E+00

     negative rho (up, down):  2.208E-02 0.000E+00

     negative rho (up, down):  2.208E-02 0.000E+00

     negative rho (up, down):  2.208E-02 0.000E+00

     negative rho (up, down):  2.208E-02 0.000E+00

     negative rho (up, down):  2.208E-02 0.000E+00

     negative rho (up, down):  2.208E-02 0.000E+00

     negative rho (up, down):  2.208E-02 0.000E+00

     negative rho (up, down):  2.208E-02 0.000E+00

     negative rho (up, down):  2.208E-02 0.000E+00

     negative rho (up, down):  2.208E-02 0.000E+00

     negative rho (up, down):  2.208E-02 0.000E+00

     negative rho (up, down):  2.208E-02 0.000E+00

     negative rho (up, down):  2.208E-02 0.000E+00

     negative rho (up, down):  2.208E-02 0.000E+00

     negative rho (up, down):  2.208E-02 0.000E+00

     negative rho (up, down):  2.208E-02 0.000E+00

     negative rho (up, down):  2.208E-02 0.000E+00

     negative rho (up, down):  2.208E-02 0.000E+00

     negative rho (up, down):  2.208E-02 0.000E+00

     negative rho (up, down):  2.208E-02 0.000E+00

     negative rho (up, down):  2.208E-02 0.000E+00

     negative rho (up, down):  2.208E-02 0.000E+00

     negative rho (up, down):  2.208E-02 0.000E+00

     negative rho (up, down):  2.208E-02 0.000E+00

     negative rho (up, down):  2.208E-02 0.000E+00

     negative rho (up, down):  2.208E-02 0.000E+00

     negative rho (up, down):  2.208E-02 0.000E+00

     negative rho (up, down):  2.208E-02 0.000E+00

     negative rho (up, down):  2.208E-02 0.000E+00

     negative rho (up, down):  2.208E-02 0.000E+00

     negative rho (up, down):  2.208E-02 0.000E+00

     negative rho (up, down):  2.208E-02 0.000E+00
 BEEFens 2000 ensemble energies
             -0.145758904347563E+01
             -0.529463784537665E-01
             -0.296928286502563E+00
              0.999851122177654E+00
             -0.472174934059741E+00
             -0.354663281093335E+00
             -0.107343242896562E+01
             -0.220404141934984E+01
             -0.784758654457620E+00
             -0.844413366248668E+00
             -0.816496808018286E+00
              0.131713676974925E+00
              0.778255719886425E-01
             -0.108511563062004E+00
              0.895251640070880E-01
              0.106581467616821E+01
             -0.450764729963193E+00
             -0.227408018327594E+00
              0.532371596237702E+00
             -0.250312975770576E+01
              0.127843097289849E+01
             -0.430423597381397E+00
             -0.142698912553974E+00
             -0.202298081004119E+00
              0.586945624103343E-01
             -0.123878800814175E+00
              0.199367377269286E+01
             -0.515286805121109E+00
             -0.184624151282799E+00
             -0.127186591198363E+01
              0.155493251587737E+01
             -0.992702699177244E-01
             -0.941567475150025E+00
              0.413614600368062E+00
             -0.646802976221776E-01
              0.649533913224763E+00
              0.392558971931178E-01
             -0.602858663575390E-02
              0.843943423732435E+00
             -0.226160492365410E+01
              0.124114418023317E+01
              0.269869351949107E+00
             -0.275127857297480E+00
             -0.677299046927511E+00
              0.271210221959688E+00
             -0.401102203248833E+00
              0.114675176905929E+01
              0.796812797758266E+00
             -0.429819688854224E+00
             -0.723999345034464E+00
             -0.687915707400474E+00
             -0.840081009502384E+00
              0.493141045530742E+00
             -0.119182333033134E+01
              0.367449468606907E+00
              0.138047465592171E+01
              0.170035198277046E+01
              0.720804626072411E+00
              0.383047326821493E+00
              0.731913758232627E+00
              0.205699812183628E+01
              0.380482246580760E+00
             -0.124717435363792E+01
             -0.215416529800351E+00
             -0.664598214052027E+00
              0.141252855102712E+01
             -0.163749594325638E+01
             -0.132916710953612E+01
             -0.755310951391241E+00
             -0.426584331497086E+00
             -0.888974725876956E+00
              0.622649275464000E+00
              0.301109919815760E+00
              0.362611634098075E+00
             -0.864841914984371E+00
             -0.804769582099827E+00
             -0.132876097149845E+01
              0.716612986944817E+00
             -0.773245800624060E+00
              0.711184015313729E+00
             -0.179790820249724E+00
             -0.641344021443448E+00
             -0.114953566319791E+01
             -0.341840172058015E+00
             -0.382668979810045E+00
             -0.342200400256247E+00
              0.873894077756515E+00
              0.175595672390904E+01
             -0.103389759049981E+01
             -0.180678100589717E+01
             -0.415258050641218E+00
              0.246730171143279E+01
             -0.125559398618057E+01
              0.692513754665456E+00
             -0.267018306151382E+00
             -0.134322906114090E+01
              0.624519331503394E+00
              0.690688344341430E+00
             -0.331099931040392E+00
              0.640232318499482E+00
             -0.563076486132733E+00
             -0.138225038355652E+01
              0.227131664308199E+01
              0.102790472234104E+01
              0.481063950734351E+00
              0.288820605540288E+00
              0.526803413092135E+00
              0.183976387356874E+01
             -0.599864171988731E+00
              0.568001765361497E-01
             -0.312864483884206E+01
              0.407715278329989E+00
             -0.149776834701391E+01
              0.280129551860202E+00
              0.488569137872192E+00
             -0.838618508906732E+00
             -0.113110492031908E+01
              0.592787698267276E-01
             -0.693234069826309E+00
              0.100309573057277E+01
             -0.101921854520848E+01
             -0.188521710017966E+00
             -0.868783492218490E+00
             -0.787919243205160E-01
              0.104656955288104E+00
              0.512292293312969E+00
             -0.115684306769062E-01
             -0.140342940577700E+00
              0.150458362034677E+01
              0.207832116351107E+01
              0.111706685119616E+01
              0.147658955602981E+01
             -0.301635507210845E+00
              0.188939629174895E+00
              0.116697361899608E+01
              0.111649936659144E+00
             -0.172100651999290E+01
             -0.991416026639673E+00
             -0.109745138922980E+01
             -0.665272930323554E+00
              0.570684111279601E+00
             -0.275283333324336E+01
             -0.273405799435971E+00
              0.105181348378650E+01
             -0.913905343685684E+00
             -0.653495574560772E+00
              0.130883551012599E+01
              0.110963112322885E+01
             -0.636193219014507E+00
              0.738939471924714E+00
             -0.560599286604250E+00
              0.855496708437076E+00
              0.162952253102105E+00
              0.239837666115998E+00
             -0.185280643411740E+01
             -0.108338569267133E+01
             -0.195800358217646E+00
             -0.692861361121506E-01
             -0.967324156360402E+00
              0.250867974285750E+01
             -0.262388376034568E+00
             -0.602161531235971E+00
              0.887688056505855E+00
             -0.101251455558915E+01
             -0.850590531582533E+00
              0.733524171314123E+00
              0.274091830229088E+00
              0.238375562167803E+00
              0.362030965680035E+00
             -0.239212112084986E+00
              0.223411637780896E+00
              0.132128748417618E+01
             -0.611500848583244E+00
              0.500050346771907E+00
              0.200315312077499E+01
              0.707670410117121E+00
             -0.953084402348843E-01
             -0.463330944004890E+00
              0.350965888549095E+01
             -0.562693011288632E+00
              0.882457144842295E+00
              0.696466030586512E+00
              0.628145863807342E+00
              0.210091590036596E+01
              0.104081425927053E+01
             -0.125127780423327E+00
              0.565101641158620E+00
              0.117127920603743E+01
              0.873464704054839E+00
             -0.138489577306265E+01
              0.212988472923318E+01
             -0.193863328609219E+01
             -0.244078163960864E+00
              0.127110030086533E+01
              0.379216178265155E+00
              0.123850149785607E+00
              0.622775409630155E+00
              0.350359705322644E+00
              0.737472059987457E+00
             -0.141418563302001E+01
              0.798921223074736E-01
             -0.525423670660935E+00
             -0.136923601211634E+00
             -0.652737128300398E-01
             -0.291644248460700E+00
             -0.144258066636975E+00
              0.187455186524762E+01
             -0.111336611864102E+00
             -0.649452857024587E+00
             -0.262407594489280E-01
              0.321929407031474E+00
             -0.145115220575845E+01
             -0.124722743018667E+01
             -0.764642061197902E+00
             -0.141915037521309E+01
             -0.430707883805642E+00
             -0.910115676961563E+00
              0.413952392621921E+00
              0.475288520858204E-01
             -0.293054896595988E+00
             -0.183084234264883E+00
              0.111248150666309E+00
             -0.310441939903927E+00
              0.146467215608797E+01
             -0.198148551626774E+01
             -0.300419350734381E+00
             -0.310815647359519E+00
              0.346394219524095E+00
              0.483835133909783E+00
             -0.115657862058128E+01
             -0.275407552222916E+00
              0.100844859786297E+01
             -0.442621043548844E+00
              0.299842408965582E+00
              0.762602597897518E+00
             -0.153773832409794E-01
              0.260146961767072E+01
             -0.250924563846247E+00
             -0.780656260280253E+00
              0.813536727089925E-02
             -0.633508209801951E+00
              0.123230916301467E+01
             -0.108856041650370E+01
              0.311782975698875E+00
              0.112963927386325E+01
             -0.295329036585922E+00
              0.265955455019724E+01
              0.288331445239296E+01
             -0.159464639948261E+01
              0.129457017090554E+01
              0.531088406757410E+00
             -0.127027518836090E+01
              0.398870758721348E+00
              0.966931135905378E+00
              0.105764085531794E+01
              0.105610903658723E+00
              0.400572978974315E+00
              0.169003277247021E+01
             -0.520061492220727E+00
              0.207064189383959E+00
              0.153113147919061E+01
             -0.818712692676884E+00
             -0.545027295156520E+00
              0.133894780056718E+01
              0.694443250823676E+00
              0.174135093292420E+01
              0.768906269762816E+00
              0.306004529533107E+00
              0.565654620273189E+00
              0.961748387778447E+00
             -0.118422593338698E+01
              0.170729906278206E+00
              0.615642168985673E+00
              0.247019531875203E+00
              0.545718660405814E+00
             -0.140220088617038E+01
              0.724924144476457E+00
             -0.978311313475709E+00
             -0.698354564443237E+00
              0.435209380184496E+00
             -0.197542842665540E+00
              0.135356020214458E+01
             -0.322145786551226E+00
              0.662396508060658E+00
              0.676257256874990E+00
              0.174435533019770E+01
              0.117947823868848E+01
              0.115994788081824E+01
             -0.647365152898782E-01
             -0.255153425649652E+00
             -0.667729291818990E+00
              0.185395106115116E+01
              0.186918566238869E+01
              0.889941602648467E+00
             -0.642925029219050E+00
              0.111822828274192E+01
             -0.767934270806236E-03
              0.387047608210877E+00
              0.157105177958174E+01
             -0.596361822589890E-01
             -0.231450851301863E+00
             -0.472792907221626E+00
             -0.138314320327734E+01
              0.218037848798421E+01
              0.115207627915257E+01
             -0.146140805615804E+01
             -0.491934259356439E+00
              0.572304486230643E+00
             -0.241618307256770E+00
              0.148892455181849E+01
              0.347821484272744E+00
              0.184001816039535E+01
              0.689570587689828E+00
             -0.532704192400006E+00
              0.414829397695053E+00
             -0.159009230805046E+00
             -0.574265517946570E+00
              0.385379760687727E+00
              0.364462520699622E+00
              0.203702291945631E+01
              0.172772723911405E+01
              0.128835398018806E+01
              0.151937214107893E+01
              0.150525638748979E+00
             -0.576952707675854E+00
              0.300714666980998E+00
             -0.755487727463583E+00
             -0.127932838586589E+01
             -0.128718919744251E+01
             -0.727498740590559E+00
             -0.244616851714863E+01
             -0.836918215088817E+00
             -0.196181932430263E+01
              0.464475555590670E+00
             -0.102079996198845E+01
              0.114854259081930E+01
             -0.223043204723355E+01
             -0.671047521374182E+00
              0.884387058142086E+00
              0.495671665687708E+00
             -0.204943030218966E+01
              0.121008581369895E+01
             -0.644520615146131E+00
              0.125350636447703E+01
             -0.627974154275297E+00
             -0.177959749785315E+01
              0.404822951685912E+00
             -0.149855995738512E+01
             -0.832340810395458E-01
             -0.282084059864571E-01
              0.945444145406076E+00
              0.284635584313612E+01
             -0.974937976222307E+00
             -0.853833801201303E+00
             -0.144408697432858E+00
             -0.182841415499520E+00
             -0.181434905829308E+01
             -0.128281713139761E+01
              0.113054163881609E+01
             -0.414274156009961E+00
              0.501064208109817E+00
             -0.111709447769066E+01
             -0.362231777971628E+00
             -0.942362373051624E+00
              0.109504632487992E+01
              0.291317624591777E+00
             -0.551315438557891E+00
             -0.402189919939936E+00
              0.298670064363775E+00
             -0.179424390270984E+00
              0.912956590397323E+00
             -0.601256907982092E+00
              0.247131527260498E+00
              0.756447192199616E+00
              0.291575805058176E+00
             -0.531784850838635E+00
              0.350797755728807E+01
              0.134086404594121E+01
              0.226123653090070E+00
              0.144919336783545E+00
             -0.137112813306177E+01
              0.750756708381656E+00
             -0.176887508065136E+01
             -0.771658288588482E+00
             -0.135101899599986E+01
             -0.406220919192172E+00
              0.133343352893633E+01
             -0.131135256153675E+01
              0.593431544531154E+00
             -0.886668830306121E-01
              0.358489748544777E-01
             -0.712552452670113E+00
             -0.937449419394648E+00
             -0.133717278287962E+00
             -0.762015365570795E+00
             -0.513990626964837E+00
             -0.901009870142580E+00
             -0.123985160527707E+00
             -0.725289086337762E+00
             -0.110497773992362E+01
              0.490846565157882E+00
             -0.285309674373046E+00
              0.536050043784684E+00
              0.194888369440402E+00
             -0.170655621371825E+01
             -0.115702379354647E+01
             -0.112474819371148E+01
              0.735408593519530E+00
             -0.145521239819488E+00
             -0.140497219221696E+01
              0.128168974067701E+01
             -0.962559880025803E+00
              0.132636253762004E+01
             -0.701906638548403E+00
             -0.111257351600240E+01
              0.567466325534983E+00
             -0.164913949917589E+01
             -0.722231211331299E+00
              0.133384343521047E+01
              0.455635979230854E+00
             -0.977461481055149E+00
              0.125979114706581E+01
             -0.368566705038262E+00
             -0.837178474019193E+00
             -0.682401650338226E+00
             -0.118010827474794E+01
              0.576190080054912E+00
             -0.197068004371527E+01
             -0.174171997841039E+01
             -0.174854648887180E+00
             -0.655682426281732E+00
             -0.136664433118622E+01
              0.173075572779229E+01
              0.311928510513904E+01
             -0.499589603863133E+00
             -0.813832455896950E-01
             -0.137347541629826E+01
              0.149773455034171E+01
              0.496483330353778E+00
             -0.466432209006673E+00
             -0.823880670835254E+00
              0.331561049859249E+00
             -0.136319458926897E+01
             -0.257796813349120E+00
             -0.196557928175304E+01
              0.772297865863207E+00
              0.263445446574307E+00
             -0.126781664554471E+00
             -0.253684661809739E+00
             -0.941011604129280E+00
             -0.289400638643382E+00
              0.308692470608598E+01
             -0.355290047383313E+00
             -0.109337157273861E+01
             -0.156721301329056E+01
              0.315913624529748E+00
             -0.861343291445879E+00
              0.222465465511556E+00
              0.754984030049093E+00
              0.106894559040624E+00
              0.808682957493858E+00
              0.405311406056885E+00
              0.133194681953277E+01
              0.572938137992018E+00
             -0.822193233378274E+00
              0.121675734139130E+01
              0.781874042771456E+00
              0.288015972242890E+00
              0.842607868096787E+00
             -0.701750616400903E+00
              0.162352976780459E+01
              0.583144814408572E+00
             -0.786171620537444E+00
             -0.124913088044567E+00
             -0.372269043375205E+00
              0.359090780771672E+00
             -0.590103948177349E+00
             -0.257803235112967E+00
             -0.291684722378580E+00
              0.184368563429146E+01
              0.132025139088895E+01
             -0.147643303049720E+01
             -0.175709623883787E+00
             -0.114584165563634E+01
             -0.306304362177578E+00
             -0.481514683741841E+00
              0.251876652492239E+00
             -0.801116565400428E-01
             -0.640706551005822E+00
              0.378192850313781E+00
             -0.211582304538408E+00
             -0.170701556022092E+00
              0.198389283041643E+01
              0.347277129660357E+00
             -0.188130495392218E+01
             -0.874479876774723E+00
              0.216530231241561E+01
              0.535502138556613E+00
             -0.188539623887694E+00
              0.249397492292327E+01
             -0.392743375994372E+00
             -0.175428976572221E+00
             -0.261950807999783E+00
              0.359456702653604E+00
              0.743821450669803E+00
              0.603882480084819E-01
              0.646763396753080E+00
             -0.258985217796165E+00
             -0.892727880047886E+00
             -0.887920769456436E+00
             -0.110244063873110E+01
              0.926341711557424E+00
              0.336803568119176E+00
              0.859576459755850E+00
              0.360446410554328E+00
              0.204655267760030E+01
              0.461177813319197E+00
             -0.174471617322288E+01
             -0.748511568419400E+00
              0.806844594201812E-01
             -0.637831993910409E+00
              0.144499806522655E+01
             -0.365882632128908E+00
              0.395570008479210E+00
              0.125111666633650E+01
             -0.183459490041079E+01
              0.335927174605067E+01
              0.439857925578302E+00
              0.547785281341795E+00
              0.859111188467705E+00
              0.893534487037311E-01
             -0.517581696240157E-01
              0.743449802127217E+00
             -0.789899378698854E+00
              0.195946730113764E+01
              0.170819504833264E+01
             -0.881956048088302E+00
              0.390679500255446E+00
              0.164673507765146E+01
             -0.495380710756740E+00
              0.457957932258910E+00
              0.765926965721709E+00
              0.952897745129813E+00
             -0.169449581559063E+01
             -0.142632975918069E+00
             -0.624779824407368E+00
             -0.141652232903885E+00
             -0.153154132000149E+00
              0.138834700109326E+00
             -0.306437011183306E+00
             -0.681037553321278E+00
              0.358637130105055E+00
              0.149466985133147E+00
              0.121252439256675E+01
             -0.104630861881365E+01
              0.102146834663924E+01
              0.114000517070822E+01
             -0.228768652561439E+00
              0.172437208949994E+01
             -0.153082109443981E+01
             -0.235119963966915E+01
             -0.172312445163473E+00
             -0.155242616486120E+00
              0.359795028251853E-02
              0.176085034877417E+01
             -0.426210567699583E-01
              0.962251090922024E+00
              0.133844430860385E+01
              0.885138857006330E+00
             -0.133274839803988E+00
              0.136653146195636E+01
             -0.381066564954148E+00
             -0.879812505498487E+00
             -0.841187609005479E+00
              0.225031800085004E+00
              0.820308874744595E+00
             -0.683462655314755E-01
              0.782443030312365E+00
              0.911396305089340E-02
              0.128034751733149E+01
              0.387822570423126E+00
              0.175299489303941E+00
              0.153986570639439E-01
              0.677913177742832E+00
              0.930441082410197E+00
              0.351860362903696E+00
             -0.767088467984252E-01
             -0.123161042168905E+01
              0.684093070821187E+00
              0.472615793597374E+00
              0.767603962573806E+00
              0.694599004306677E+00
              0.824758158383950E+00
             -0.208780429991293E+00
              0.758577546313022E+00
             -0.656815687817591E+00
             -0.440825423537738E-01
             -0.120463815000384E+01
             -0.793250585424490E+00
              0.983200803514284E+00
             -0.200958708802079E+01
              0.562942177400124E+00
              0.319031983989971E+00
              0.195373211207363E+01
             -0.330151171367905E+00
              0.739911260944295E+00
             -0.261920956191414E+00
             -0.112146539792840E+01
             -0.151994094081610E+01
             -0.328843159121651E+00
             -0.206853879407690E+01
              0.206781657219389E+00
             -0.479612102836464E+00
              0.739862441678178E+00
              0.530857253159168E+00
             -0.643702614040073E+00
             -0.671872462055978E+00
              0.973799145672977E+00
             -0.129089078639656E+01
             -0.302149021876359E+00
             -0.375836354755528E+00
              0.599629274928764E+00
              0.865588178796006E-01
              0.894335892114335E-01
             -0.355883378203031E+00
              0.122330558658113E+01
             -0.132124937110191E+01
              0.168037134801684E+00
              0.136193903830090E+01
             -0.822773428728610E+00
              0.776553555515900E-01
              0.247048143321305E-01
             -0.149950025681752E+01
             -0.896968937532172E+00
             -0.550953053123671E-01
              0.696116059138305E+00
              0.774905953212529E+00
              0.105323672819634E+00
             -0.260003983490034E+00
              0.403827101048572E+00
             -0.933921622153084E+00
             -0.101056849752720E+00
             -0.119601714980548E+01
             -0.592874608867608E+00
              0.113685027353889E+01
             -0.694168971429585E+00
              0.157878733266347E+01
             -0.519055731319194E+00
              0.773163049552905E+00
              0.579443907864354E+00
             -0.136266488523783E+01
             -0.594461226524304E+00
              0.212561036777378E+00
             -0.932610233585053E+00
             -0.937387833487973E+00
             -0.201296822274156E+01
             -0.126956819316818E+01
             -0.113131665659655E+01
             -0.103078880820456E+01
              0.139658928682440E-01
              0.537921636809807E+00
              0.233637622796957E+00
              0.609997273956722E+00
             -0.133295495793270E+01
              0.294162098180221E+00
              0.618646382042800E+00
             -0.156731991690527E+01
             -0.131059611488475E+01
             -0.878901392534322E+00
             -0.727102905221244E+00
              0.343691589216027E+00
             -0.661658455449157E-01
             -0.977170188200417E+00
              0.661217352308832E+00
             -0.513487044259319E+00
              0.119034486614722E+01
             -0.199840163055864E+01
              0.143553098169749E+01
             -0.235300477239895E+00
             -0.991283232274390E+00
             -0.637294606448362E+00
             -0.186355061725783E-01
              0.111004735142948E+01
             -0.159392944321895E+01
             -0.294938222196739E+00
             -0.377768795744115E+00
              0.950361775956364E+00
              0.182138964017612E+01
             -0.226858250213179E+01
              0.209312308082123E+01
              0.902222575475461E+00
             -0.173635580919280E+01
             -0.725490455629060E+00
              0.178853894182736E+01
              0.129905992175090E+01
             -0.466835995845249E+00
             -0.164974134832855E+00
              0.405911206652347E+00
              0.175789588820992E+01
             -0.134636500216761E+01
              0.305462973773337E+00
             -0.169637941718956E+00
              0.619822425728550E+00
             -0.160383469898809E+01
             -0.667033861775952E-01
             -0.628684416257572E+00
              0.110347239372405E+01
              0.883580358664763E+00
             -0.201461110957702E+01
             -0.108085552005972E+01
             -0.476055752601724E+00
             -0.980725539707217E+00
             -0.294505180157307E+00
             -0.431292007889632E+00
              0.103405574919880E+01
              0.994783310018957E+00
             -0.549811017547821E-01
             -0.995398175818611E+00
             -0.194603286680203E+01
              0.113937494100926E+01
             -0.105977669304591E+01
             -0.837185520673889E+00
              0.167941143661779E+00
             -0.832556622427102E+00
             -0.924363464398498E+00
             -0.699367495233338E+00
             -0.114522229696056E+01
             -0.550535866010607E+00
             -0.113719038145564E+01
              0.126730848777548E+01
              0.136461667186012E+01
             -0.232168865262805E+00
             -0.486560243968611E+00
              0.675646021642571E-01
              0.964995337773697E+00
             -0.194913419146195E+01
             -0.540663921844168E+00
              0.113822239207588E+01
              0.160522819836403E+01
             -0.249419672199865E+00
              0.252726049868238E+00
              0.119299800089060E+01
              0.345282795306758E+00
              0.160243787331869E-01
             -0.889252469934540E+00
              0.342140272552710E+00
             -0.750572622387859E+00
             -0.209127752771557E+00
             -0.477007440916363E+00
             -0.334173063955452E+00
              0.529889640838217E+00
              0.180575626190050E+01
             -0.151643006817961E+00
              0.460637192390694E-01
             -0.208323013335882E+01
             -0.412700730072281E+00
             -0.821729766274701E+00
              0.448320590748263E-02
             -0.105344844732000E+01
              0.202504905536570E+01
              0.197613057628836E+01
              0.423665415748032E+00
             -0.508122111024112E+00
              0.401089397155799E+00
              0.480944091413127E+00
             -0.105051910001901E+01
             -0.192424112690176E+00
              0.426271265222656E+00
              0.288290073342082E+00
              0.116712200743172E+01
              0.915632796591706E+00
             -0.486689559047368E+00
              0.517001722411885E+00
             -0.221063518120493E+01
             -0.590148411580207E-01
              0.204425244048706E+01
              0.409598955488041E+00
             -0.478283388307101E-01
              0.620576138322805E+00
             -0.538297439839189E+00
              0.201231605709997E+01
             -0.438521884889202E+00
              0.178253512221186E+01
              0.865937101219659E+00
             -0.100361907453098E+01
              0.750917990440598E+00
             -0.643194455663969E+00
             -0.154385388050729E+01
             -0.179093102768093E+00
             -0.124125376161527E+01
             -0.119260609402210E+01
             -0.385068244222970E-01
              0.836490523784949E+00
             -0.292242534140865E+00
             -0.713032586551305E+00
              0.165974942001561E+00
             -0.150793130740114E+01
             -0.892808473524490E-01
             -0.197941130015717E+01
              0.122186562143852E+01
             -0.981362842480524E-01
             -0.111422135835443E+01
             -0.388047479636048E+00
              0.393279288605949E+00
             -0.843547962015482E+00
             -0.101322426620862E+01
              0.205225096345607E+01
             -0.626402229947534E+00
             -0.886521142798003E+00
              0.704502556131940E+00
             -0.464102332632449E+00
              0.127533116110005E+01
             -0.344015133479658E-01
              0.805186801246371E-01
              0.246607558865663E+01
             -0.230358068953752E+00
             -0.874622546345143E+00
             -0.106459498957126E+01
             -0.118844754564888E+01
             -0.843033575917071E+00
              0.674369139956262E+00
              0.671004722136193E+00
              0.636073393567779E+00
              0.169986217070699E+01
              0.107059528274347E+00
              0.504529382811496E+00
             -0.134610201604004E+01
              0.390537971505482E-01
             -0.390688892171900E+00
             -0.615797975490910E+00
             -0.122483811129051E+00
              0.756789840174061E+00
              0.863317508608246E+00
             -0.497466720118368E-01
              0.274891863567131E+00
              0.636151409822372E+00
              0.804244440822757E+00
             -0.525626779005638E+00
             -0.222612960908249E+00
              0.204214970121965E-01
             -0.592722966471189E+00
             -0.950485336007425E-01
             -0.866079565063766E+00
              0.177499538692276E+01
              0.139947083017643E+01
             -0.387759329570258E+00
              0.357424431689359E+00
             -0.119818546236592E+00
             -0.688994048351844E+00
              0.840796725134812E+00
             -0.212965514937506E+00
              0.830712036808324E+00
             -0.110460775618896E+01
              0.403973536649860E+00
             -0.177369832490243E+00
             -0.123100475510346E+01
             -0.546520103344523E+00
              0.548650119867491E+00
             -0.221423368224098E+01
              0.881281940173617E+00
              0.107263877338657E+01
             -0.220041644683883E+00
             -0.161889260635479E+00
             -0.775945979812356E-01
              0.609573250496345E+00
             -0.764147442363278E+00
              0.713188094408911E+00
              0.733339093858454E+00
             -0.211458861237712E+01
             -0.824446637791513E+00
              0.544184702909531E+00
             -0.288277809361180E+00
              0.108173757341548E+01
             -0.140638572935054E+01
             -0.189356636599580E+00
             -0.908894578164339E+00
             -0.294737638396159E+01
              0.179808805893461E+01
             -0.137462372532821E+01
             -0.151172927573377E+01
              0.148195267306384E+00
              0.294083880231689E+01
              0.145889659029674E+00
             -0.713419843818123E+00
             -0.253098796639151E-01
             -0.991367454105347E-01
             -0.198215307267569E+01
             -0.127833387228210E+01
              0.194390681084545E+01
             -0.252079593716124E+00
             -0.833116681724441E+00
              0.112708736842367E+01
             -0.751265737705358E+00
              0.778755014793846E+00
              0.111211884347519E+01
             -0.124354415910837E+01
             -0.640704526635435E+00
             -0.737830246346705E+00
             -0.377200356526578E+00
             -0.454011340060126E+00
             -0.389139339182972E+00
              0.439342594162182E+00
             -0.800302932583734E+00
              0.636729015567958E+00
              0.127263284455062E+01
             -0.187001664752809E+00
             -0.455604569151676E+00
              0.333125170700517E+00
              0.124414601631251E+01
              0.124321246295665E+01
              0.199862792683423E+00
             -0.218795098344145E+00
             -0.232377016502374E+00
             -0.121364452370610E+01
              0.914312396908321E+00
             -0.574537377277375E+00
              0.502500564713278E+00
             -0.303305459361251E+00
              0.607826158555952E+00
              0.391560505598272E+00
             -0.186531176011640E+01
             -0.588262748688667E+00
             -0.178972878642699E+01
             -0.900537493423190E+00
              0.115764927025485E+00
             -0.441906599657286E+00
              0.787854503946938E+00
             -0.643170372239524E+00
              0.686591460033315E-01
              0.169817457785843E+00
              0.163174300755293E+01
              0.841660660151086E+00
             -0.721003705794922E+00
             -0.297292229736246E-01
              0.339137053960397E+00
              0.846973416472091E+00
             -0.731780300602836E-02
              0.127248680595789E+01
              0.635806479669278E+00
              0.204884915737292E+01
              0.888533236677023E-01
              0.143842982335967E+01
             -0.622197260995527E+00
             -0.900764642320100E+00
              0.777950894869530E-01
              0.238767227847163E+00
              0.544101941042299E+00
             -0.413133771990045E+00
             -0.265041000634862E+00
              0.522994198056140E+00
             -0.106970542039515E+01
             -0.133655021373968E+01
              0.180125740132694E+01
             -0.142513865258191E+00
             -0.864314459999641E+00
             -0.111095946368049E+00
             -0.318603799040142E+00
              0.960037731004107E+00
              0.821222623608561E+00
             -0.455524410044626E+00
             -0.126592919655648E-01
             -0.601913978415173E+00
             -0.800991617592963E+00
             -0.571411530775464E+00
             -0.222700548550282E+01
              0.112004185376335E-02
             -0.149138167713853E+01
             -0.133696485163071E+01
             -0.874420498297589E+00
              0.487221615846140E+00
             -0.884390702706936E+00
              0.533723244365421E+00
             -0.145184584470441E+01
              0.114844309003104E-02
             -0.965954004196957E+00
              0.164110039142955E+00
              0.178901599133652E+00
              0.775324362003912E+00
             -0.461149077517828E+00
             -0.429641935181175E+00
              0.709213138217994E+00
              0.136321055247579E+01
              0.734366945636430E+00
              0.238890248328737E+00
             -0.167983561007107E+01
             -0.341639554703579E+00
             -0.635964843659806E+00
             -0.141046437557383E+01
              0.980967773814092E+00
             -0.780015527980630E+00
             -0.169505344120661E+00
             -0.608940619874894E+00
             -0.227163521935634E+01
              0.127377158944384E+01
             -0.405317698957013E+00
              0.889360414781324E+00
             -0.169193416574448E+01
              0.148691790227969E+01
              0.133908724824664E+00
             -0.608256748487672E+00
              0.212320963091573E+00
             -0.474843325678853E+00
             -0.145743611725707E+01
              0.398358813785848E+00
              0.843612780657223E+00
             -0.157496850408680E-01
             -0.789351719397242E+00
             -0.342299039303756E+00
              0.460043364002936E+00
              0.821372281966164E+00
              0.141984922818174E+01
              0.518658232963695E+00
             -0.529172489952786E+00
              0.223377834845425E+01
              0.516029783145530E+00
              0.104661901564516E+01
             -0.367658269398365E+00
              0.680016814957301E+00
              0.516229202387780E+00
             -0.140475073164116E+01
             -0.505908030245517E+00
             -0.909399573777391E+00
             -0.906185035581393E+00
             -0.260423226654988E+00
             -0.218371129101833E+00
             -0.101535428269351E+01
             -0.254431823343209E+01
             -0.622010160354916E+00
              0.327744322287497E+00
              0.137117543789905E+00
              0.329599087631273E+00
              0.949318588543026E+00
              0.275070547185219E+00
              0.720925366075624E+00
             -0.999470137951558E+00
              0.988337111356852E+00
             -0.929657827263371E+00
             -0.155042736657126E+01
              0.456115937037676E+00
             -0.940210022708465E+00
             -0.918187707934265E+00
             -0.362993730115064E+01
             -0.174710106339465E+00
              0.190671385741193E+01
              0.948733917855396E+00
             -0.228254345421782E+00
             -0.242115805921626E+00
              0.949558772411050E+00
              0.146078888496970E+01
             -0.891229468943283E+00
             -0.294575418974700E+00
             -0.812976240593424E+00
             -0.765955438955102E+00
             -0.690629627054070E+00
              0.271840982074842E+00
              0.160581240309228E+01
             -0.149141577381440E+01
             -0.123646852334088E+01
              0.765218614759089E-01
             -0.322664570356275E+00
             -0.402430598735350E+00
             -0.205160623206192E+01
              0.139322849956942E+01
              0.461702661787362E+00
              0.196975804358898E+00
              0.119096099155346E+01
             -0.735913435330974E+00
              0.764390881398531E+00
              0.658423763921285E+00
              0.597198248230990E-01
             -0.185961664782853E+00
              0.208890060292144E+00
             -0.351255556415874E+00
              0.117759441533182E+01
             -0.925543556866170E+00
              0.103975530735210E+01
              0.214830546995032E+00
              0.369083770414243E+00
              0.455713378256181E+00
             -0.185245069049882E+01
              0.211611246799676E+00
             -0.150895767582560E+01
             -0.110749357557654E+01
             -0.109679341096769E+01
             -0.117743990126551E+01
              0.945889870028438E-02
              0.410522538416738E+00
              0.113152557283010E+01
              0.174644039602780E+00
              0.331848286340557E+00
             -0.159087322734557E+01
             -0.639959628685141E+00
              0.738224520293224E+00
             -0.570006363820272E-01
             -0.644039411624400E-01
             -0.219734457647439E+00
              0.822441715793631E+00
             -0.206999534270078E+01
              0.303824901495140E+00
              0.495993518078988E+00
              0.904072742986534E+00
              0.854291952675413E+00
             -0.129439643666836E+01
              0.342606805239189E+00
              0.140647945582450E+00
              0.162263831600217E+00
              0.110612835990558E+00
             -0.449442656222621E+00
             -0.962237836966592E+00
              0.400097765634837E+00
              0.133229051176489E+01
             -0.431894364434626E-01
              0.304134489240901E+00
              0.284079790823898E+00
             -0.693399820506635E+00
             -0.723065178626690E+00
             -0.278352981336630E+01
             -0.877583611655719E+00
             -0.130620755379947E+01
             -0.152718096587726E+00
             -0.153851672927337E+01
              0.172584092500540E+01
             -0.758603885780362E+00
             -0.124460371073004E+01
             -0.357761727759068E+01
              0.153700122360982E+01
              0.331608006210091E+00
              0.175456971212163E+00
             -0.138887866516554E+01
              0.101850126261033E+00
             -0.364893773267302E+00
             -0.716928066956346E+00
              0.189105287474664E+00
              0.732308628162430E+00
              0.122378397730472E+00
             -0.452913922230508E+00
              0.657835538372176E-01
              0.232943567490764E-01
              0.271781600473330E+00
             -0.151367895749965E+01
              0.166174780188276E+01
             -0.946752617079213E+00
             -0.600473230368042E+00
             -0.114482760558845E+01
             -0.245461918645879E+01
              0.121444529850707E+00
             -0.127928414888688E+01
             -0.437160895842228E+00
              0.710164573008036E+00
             -0.604852977092927E+00
             -0.232934173440769E+00
             -0.288444457692509E+00
             -0.484770798621817E+00
              0.692209040803275E-01
              0.117378147122076E+01
             -0.116240342016142E+01
              0.233927866889959E+01
             -0.551398901878126E+00
              0.751117621842514E+00
             -0.380866005678172E+00
              0.286165708530355E+00
             -0.278562624832119E+00
              0.102758860404601E+01
              0.144249845949030E+01
              0.413963337992197E+00
              0.105221148391326E+01
             -0.696118734552431E+00
             -0.153645702415807E+00
             -0.550795579640672E+00
              0.144693880266584E+01
              0.124609533875500E+01
              0.915135279621385E+00
             -0.304607399398787E+00
             -0.593235966295856E+00
              0.553556518759420E+00
             -0.646869969080714E+00
             -0.328860199397308E+00
             -0.142418715345460E+00
             -0.788181776166842E+00
              0.112960218172073E+01
             -0.234321551830752E+00
              0.824785312750041E+00
              0.478433329389733E+00
              0.358431871188405E+00
             -0.779767162137080E+00
              0.599149069043865E+00
             -0.318005038587165E+00
             -0.167599756979275E+00
             -0.252386743005530E-01
             -0.111313991510600E+01
              0.177409598806316E+01
             -0.627518904651666E+00
              0.434718094708408E-02
              0.547368416257395E+00
              0.467465197543194E+00
              0.174913521958994E+01
             -0.497128042467672E+00
              0.171968729563657E+01
              0.152683812912414E+01
             -0.213510466693576E+01
              0.175820097596678E+00
             -0.423089279992521E+00
              0.261205836499153E+00
              0.102366972387415E+00
              0.471343978744397E+00
              0.145662491993076E+01
              0.223476166303842E+01
             -0.168740024565826E+01
              0.173705860457808E+01
             -0.226935046644182E+01
             -0.193200803689491E+01
             -0.324543420934957E+00
              0.259610410797277E-01
              0.177545001476381E+01
              0.755379782458972E+00
             -0.329282605054283E+00
             -0.192910330400528E+01
              0.153047659851141E+01
             -0.954393221830003E+00
              0.359231549054222E-01
             -0.109363538040957E+00
              0.295991201277177E+01
             -0.530017385611509E+00
             -0.239419769585020E+01
              0.696859843103459E+00
             -0.370015931785374E+01
              0.295852223792972E+00
             -0.874638732474334E+00
             -0.394280629171607E+00
             -0.601895040894341E+00
             -0.135458300921267E+01
              0.847230452584968E+00
             -0.818670655705192E+00
             -0.306039179422894E+00
             -0.172733254716371E+01
             -0.106815024269062E+00
             -0.122245269643556E+01
             -0.174700832486335E+01
             -0.247043161355565E+01
              0.190663388930108E+00
             -0.821895532815795E+00
              0.188978315899313E+00
             -0.297237914782338E+00
             -0.188168328600618E+01
             -0.145788467296179E+01
             -0.128562646828902E+01
             -0.130882113500810E+01
              0.119013039646141E+01
              0.158548928164895E+00
             -0.112085364749844E+01
             -0.551593536501876E+00
             -0.616459711831717E+00
              0.930492197114006E+00
             -0.715845365614023E+00
             -0.132085501838636E+00
             -0.684324303427930E+00
             -0.903284425855309E+00
             -0.932934043070789E+00
              0.928609287979869E+00
             -0.294057834552920E+00
             -0.207983770130962E+01
              0.178330872577640E+01
              0.104544607576948E+01
              0.844450104003336E-01
             -0.182952694090550E+01
             -0.170634623117770E+01
              0.142094653779452E+00
              0.202145527498043E-01
             -0.766387991162077E+00
             -0.102310896267663E+01
              0.711524772741424E+00
             -0.125545759941905E+00
              0.615953775788602E+00
              0.108273534618017E+01
              0.806969650505054E+00
              0.582926521404098E+00
              0.503656959378646E+00
             -0.506457548645399E+00
             -0.337537434599856E+00
             -0.420963324995924E+00
             -0.862490746666221E+00
             -0.108356493629428E+01
             -0.139731859922555E+01
             -0.827252232337810E+00
             -0.278656120235008E+00
             -0.171289171270069E+01
             -0.367500472103275E+00
              0.786412335262353E+00
             -0.188371304045314E+01
              0.804437718544120E+00
              0.636760609779322E+00
             -0.163429133476422E+01
             -0.127629092722509E+01
             -0.506016263349462E+00
              0.308444926932025E+00
             -0.937191802743769E+00
              0.170891641110355E+01
              0.150911008773937E+01
             -0.175432702401378E+01
              0.982615064993961E+00
              0.826496244380280E+00
              0.222878475742687E+00
              0.445593287123606E+00
             -0.967383186705554E+00
             -0.354722048498904E+00
              0.138620817780382E+00
              0.459590527378449E+00
              0.956485010134342E+00
             -0.123464555378448E+01
             -0.232765819914643E+00
              0.378203665784660E+00
              0.172398029578125E+00
             -0.767590056097328E+00
              0.420111699571386E+00
             -0.579764695307855E+00
             -0.402142865216055E+00
             -0.580212195053242E-02
             -0.140569958504687E+01
             -0.510623745193506E-04
             -0.244406856798232E+00
             -0.345370528280419E+00
              0.317522249525577E+00
             -0.121327784088222E+01
              0.131455277906714E+01
             -0.500202431922743E+00
             -0.304457559318101E+01
             -0.196530832114115E+01
              0.802474737667456E+00
             -0.929894545618169E+00
             -0.490587870923768E+00
             -0.557365420581557E+00
             -0.428320568171185E+00
             -0.235708924502106E+01
             -0.508532866648217E-01
             -0.141646425072539E+01
             -0.754462893772844E+00
              0.481493728378945E+00
              0.178402394800164E+01
              0.909645433953893E-01
              0.580816743218149E-01
              0.136737805353742E+01
             -0.128653023769620E+01
              0.660970747119642E+00
              0.147239082923739E+00
             -0.117367437463033E+01
             -0.656159661144279E+00
              0.455474897600778E+00
              0.656702960772240E-01
              0.367415446756569E+00
              0.322259522869914E+00
             -0.537846542080307E+00
             -0.728401877153821E+00
             -0.113981135048772E+01
              0.112925425695128E+01
             -0.154460856098823E+01
             -0.113687136629047E+01
              0.331875408937781E+00
             -0.193733902004971E+01
              0.511939851422763E+00
              0.135260914404897E+01
             -0.249734659595176E+00
              0.421959438481814E+00
             -0.739691350543270E+00
             -0.502319917442028E+00
              0.245262293612484E+00
              0.825333013340724E+00
             -0.843179648035852E+00
              0.529537186803569E+00
             -0.321226169053803E+00
              0.121272726431734E+00
              0.444215834436500E+00
              0.245830735836900E+00
             -0.261146210705884E+00
             -0.194947393234779E-01
              0.309922685764736E+00
              0.631924977974560E+00
             -0.161261995815470E+01
             -0.247072180280128E-01
              0.122265426581730E+01
             -0.203990158146460E+01
              0.753822073715579E+00
             -0.261157916129843E+01
             -0.248876296380736E+00
             -0.329505548398802E+00
             -0.694427330281364E-01
             -0.273619438508033E+00
             -0.634376496171200E+00
             -0.220401482400202E+00
              0.312992112861960E+00
             -0.559689668461684E+00
              0.250059108801529E+00
              0.205592405894504E+01
             -0.132111812991921E+01
             -0.583731551300583E+00
              0.935869899514966E+00
              0.481925766661418E+00
              0.951006925188828E+00
              0.434915747254878E+00
              0.422195696837909E+00
             -0.332118799326472E+00
             -0.112601833438853E+01
             -0.101160442142887E+01
             -0.754594852037052E+00
              0.116231634690194E+00
             -0.961271405230612E+00
             -0.269301976683092E+00
              0.143995648073878E+00
              0.557636390390799E+00
             -0.158987932933721E+00
              0.133404980429061E+01
             -0.145737197052112E+01
             -0.367008979267736E-01
             -0.171879244861835E+00
              0.713996348738417E+00
             -0.986324906748723E+00
             -0.638208011902157E+00
              0.348811325103378E+00
              0.106090087723372E+01
              0.170098002846537E+01
              0.709249810673531E+00
              0.103995796769348E+01
             -0.577042664587415E+00
              0.143427847708191E+01
              0.144794561576646E+01
             -0.524645470792038E-01
              0.728976345476899E+00
              0.869279934608677E+00
             -0.479748433957303E+00
              0.288946818947454E+00
              0.149516205670258E+01
             -0.497088595209204E+00
             -0.170269111646927E+00
             -0.142977813940167E+01
              0.525906564692911E+00
             -0.316853785014657E+00
              0.482809187840660E+00
              0.555721593262213E-01
             -0.901063681359420E+00
              0.104225566839703E+01
              0.903700703623627E+00
             -0.696681607409874E+00
              0.386621157566870E+00
             -0.134461537967078E+01
             -0.123891176602536E+01
              0.567556429354292E+00
             -0.156176582164565E+01
             -0.779500730931908E+00
              0.491063449974689E-01
              0.194955841257209E+01
             -0.511193103818690E+00
             -0.239081181752768E+00
             -0.445233836206513E+00
              0.255764124127842E+01
              0.426101384201464E+00
             -0.963001264493228E+00
              0.160002601950839E+01
              0.141931619894872E+01
              0.746626240249273E+00
              0.180706120264039E+01
              0.196306935410282E+01
             -0.102788397004971E+00
             -0.670776118792904E+00
             -0.590426740683700E+00
              0.618985670677705E+00
              0.883624239405004E+00
             -0.154770380424663E+00
             -0.542101917497851E+00
             -0.130952087366918E+01
             -0.501046846274029E+00
             -0.105852185345873E+01
              0.762004435484542E+00
              0.388991724873149E+00
              0.136821341384074E+01
              0.281909093583463E+00
             -0.533775224869697E+00
             -0.201658509592391E+00
              0.914471699223693E+00
              0.243176974783925E+00
              0.137460896215473E+01
              0.127012285336944E+01
             -0.213829394220273E+00
             -0.193878620525455E+00
             -0.229641009908581E+01
              0.113351823366801E+01
             -0.228685762585705E-01
              0.128434791170821E+01
             -0.564757185551962E+00
             -0.149379497357514E+01
              0.437984627327282E+00
              0.164862105530721E+01
             -0.578791238114315E+00
              0.152088139661769E+01
             -0.163716835623435E+01
             -0.586178883663411E+00
             -0.193476217769316E+01
              0.396879253126533E+00
              0.130253729876975E+00
              0.173212478759687E+00
             -0.141018579474632E+01
              0.209656611270876E+01
              0.122145147732829E+01
              0.141678909706414E+00
             -0.120447992352665E+01
              0.462591390742565E+00
             -0.441413006896281E+00
             -0.321249360304583E+00
             -0.603058577541420E+00
              0.390851421536448E+00
             -0.361183166748555E+00
             -0.420235522212399E+00
              0.524892245432001E+00
              0.535614912807326E+00
             -0.204057805778668E+01
              0.447600973164466E+00
              0.150434783488593E+01
              0.967097507217048E+00
             -0.307842340477893E+00
             -0.275842738097645E-01
             -0.837752891555626E+00
              0.128183432571193E+01
              0.228096542358251E+00
             -0.745244179686129E-01
             -0.130480011526229E+00
              0.248550330987460E+01
             -0.144382307233675E+00
              0.549850531819194E+00
              0.168317369558297E+01
              0.220554872695877E+01
              0.136586776605375E+01
              0.907264185898216E+00
             -0.143916054686418E+01
             -0.105134734568142E+01
              0.826151970254917E+00
              0.820562708436761E-01
              0.700626336823508E+00
              0.298824828143656E+00
              0.146115558326214E+01
             -0.181086590783036E+01
             -0.111672434638329E+01
             -0.247910561820440E+00
             -0.198065722868509E+01
              0.433987136395207E+00
              0.102954013645474E+01
              0.589802397656189E-01
             -0.470267971091669E+00
              0.480165354187527E+00
              0.308347447036152E+01
              0.711080337016318E+00
              0.402311500912548E+00
             -0.109094482122503E+01
             -0.134406676104626E+01
             -0.307078935717977E+00
              0.644859076405065E+00
             -0.134312922412160E+00
              0.570697150490508E+00
              0.796428643584132E+00
             -0.141445180661866E+01
              0.614675916733995E+00
              0.811745963352363E+00
              0.130225386568288E+01
             -0.225098535650035E+00
              0.106899854081684E+00
             -0.161831154365803E+00
             -0.102491801716848E+01
             -0.166066359131719E+01
              0.174973223990053E+01
             -0.230119223534408E+00
             -0.122411170633257E+01
              0.169131933772505E+00
             -0.681143094953638E+00
              0.195046756920220E+01
             -0.509676042386459E+00
             -0.852931642075490E+00
              0.824053041872350E+00
             -0.348842819956626E+00
              0.105743916935827E+01
              0.198868747652554E-01
              0.212584568700321E+01
              0.118245764360132E+01
              0.244300886342834E+00
             -0.890752983378036E+00
              0.647200194022963E+00
             -0.123671374713985E+01
             -0.112663271965022E+00
              0.146113434558367E+01
             -0.577342690557763E+00
             -0.995078944638763E+00
             -0.513078723675025E+00
              0.117522651930776E+01
              0.277618331017194E+00
             -0.186077428997164E+01
              0.776682926520963E+00
              0.168318565829701E+00
              0.242957948247321E+00
             -0.110269212984477E+01
              0.216289001001382E+00
              0.786635671856096E+00
              0.106463210346241E+01
              0.146845367694125E+01
              0.782838131031776E+00
              0.177422312846800E+00
             -0.124324504329165E+01
             -0.957317872363265E+00
             -0.149737296862178E+01
             -0.305069186561370E+00
              0.774120170173848E+00
             -0.142409258799296E-01
              0.118333588887338E+01
             -0.726795936134659E+00
              0.395219672653290E+00
             -0.499902638915732E+00
             -0.610518879836380E+00
              0.133203638179925E+01
              0.124281579836008E+00
              0.140916521643728E+01
              0.124674479452493E+00
              0.458118904874597E+00
             -0.363746965737807E+00
              0.137453777296619E+01
             -0.353316357767072E+00
             -0.117901121962457E-01
             -0.177458633680731E+01
             -0.168255941653770E+00
              0.158926331613185E+01
              0.147958695673760E+01
              0.560167988769900E+00
             -0.354273956480936E+00
              0.102398707985319E+00
             -0.519363069588472E+00
             -0.407989131937572E+00
              0.202959919026728E+01
              0.155734772615542E+00
             -0.649365923744268E+00
             -0.242972035087793E+01
             -0.100501168699217E+01
             -0.857352410183073E+00
             -0.140776031870003E+01
             -0.134833548042359E+01
             -0.161794715145996E+01
             -0.102066796499619E+01
             -0.648908388778835E+00
             -0.108458914449860E+01
              0.100639681951778E+01
             -0.417536946089132E+00
             -0.197011888336858E+01
              0.948223323189793E+00
             -0.754998789296593E+00
             -0.180374198619111E+01
              0.229192868760000E+01
             -0.573037320319739E+00
              0.351879208145782E+00
              0.869732584957179E+00
              0.274737619803377E+00
              0.583610225249750E+00
              0.229938948522586E-01
              0.247880446164875E-01
             -0.285125341667931E+00
             -0.166262795334185E+01
              0.247937107647455E+00
             -0.275010381258932E+01
              0.161857574149703E+01
             -0.917326560113741E+00
             -0.410821544081211E+00
             -0.463748847131082E+00
              0.480689215736607E+00
             -0.370113620266735E+00
              0.654741074658829E+00
             -0.132367983049863E+01
              0.832480270208092E+00
              0.960560270317839E+00
              0.224103227077319E+00
              0.203408384697845E+00
              0.486923475377887E+00
              0.218458703223266E+00
              0.688309079145284E+00
             -0.110800797374185E+00
             -0.165762903476312E+01
              0.221711065277363E+00
             -0.771042518852415E+00
             -0.685215490872686E-01
              0.124849258944858E+01
             -0.181924139922104E+01
              0.409249544812065E-01
              0.725673436884406E-01
              0.211802065014217E+00
              0.699330020791318E+00
             -0.289365188053846E+00
              0.191470856271404E+01
              0.862479454279550E+00
             -0.341163787537968E+00
             -0.213427653154375E+00
              0.138607331756337E+00
              0.179064413590025E+01
             -0.112666030115690E+01
             -0.230495642016098E+01
              0.657547308184279E+00
             -0.179656577276795E+00
             -0.343991706543827E+00
              0.435717826924515E+00
              0.172899265420639E+01
              0.958530617444916E+00
             -0.390104381924676E+00
             -0.122112021226205E+01
             -0.277201489945611E+00
              0.628004486624765E+00
             -0.400936366067638E+00
             -0.172354932341731E+01
             -0.199169884653934E+00
             -0.221059411445549E+01
             -0.116622011466872E+01
              0.196366499897406E+01
             -0.118335641767037E+01
             -0.161953139167749E+01
             -0.121036305656666E+01
             -0.899322825001871E+00
              0.768295784722260E+00
              0.193358566907795E+01
             -0.206777915681041E+00
              0.607498317832186E+00
             -0.453384322360027E+00
             -0.154477606668133E+01
              0.117445657510317E+01
             -0.109807317981677E+01
              0.581155981243311E+00
              0.664596697303401E+00
             -0.351522391432092E+00
              0.864801413891432E+00
              0.890000946545089E+00
              0.272112589025587E+01
             -0.244817987094930E+00
             -0.125916307319534E+01
             -0.151271152497817E+01
             -0.427376996039573E+00
             -0.925180160506609E+00
              0.213827528467429E+01
             -0.102657149947205E+01
              0.229254619913763E+00
              0.634046075285069E-01
             -0.453230059342863E+00
             -0.194219887840644E+01
             -0.150601159740610E+00
              0.228146465131467E+01
              0.480117740678533E+00
              0.174978849962517E+00
             -0.131920625010046E+01
             -0.124042108808834E+01
             -0.394447167982615E+00
              0.103088314190289E+01
             -0.602834549113330E+00
              0.230170736270611E+01
             -0.106208604957396E+01
              0.435047017067201E+00
             -0.326471551287332E+00
             -0.140617475314030E+01
              0.152766503662731E+00
             -0.128125628421476E+01
             -0.168220684455299E+01
              0.241954913250121E+00
              0.317969492466652E-01
              0.111641285418518E+01
              0.607985427368474E+00
             -0.795405775396890E+00
              0.508716541029116E+00
             -0.199612557074980E+01
             -0.108923056903830E+01
              0.212215524734542E+01
              0.997017652375876E-01
             -0.132521322280395E+00
             -0.576973629819153E+00
             -0.106511234659994E-01
             -0.265880505969809E+00
              0.207613598892608E+01
              0.933690301260949E+00
             -0.206658813363056E+00
             -0.139575976176527E-01
             -0.877163254487065E+00
             -0.309085775820385E+00
             -0.142640352581890E+01
              0.117232668981853E+01
              0.149628297695747E+00
              0.185633577958299E+00
              0.414528484108919E+00
             -0.304471764515953E+00
             -0.511364465038894E+00
              0.169495679353362E+00
             -0.253064031822260E+01
             -0.249323157400993E+00
             -0.206476762847603E+00
             -0.142881673223739E+00
              0.113081568800625E+01
              0.146270505668015E+01
              0.400831785938319E+00
             -0.212552457428259E+01
              0.145837869067909E+01
             -0.548736477012359E+00
             -0.846590733048315E+00
             -0.199289579524282E+01
             -0.634310168633907E+00
              0.141860551457444E+01
              0.752380816943276E+00
              0.370066824204198E+00
              0.794348220209061E+00
             -0.127214671695418E+01
             -0.110946885912037E+01
              0.141959517166071E+01
              0.948439771335471E+00
              0.108290906148746E+01
              0.164712979715267E+00
              0.233405840147012E+00
              0.120735279403621E+01
              0.226075470333802E+01
             -0.421310639492955E+00
              0.914148499954273E+00
             -0.629398362255900E+00
             -0.998581011240499E+00
             -0.786106104882412E+00
             -0.749626240248218E+00
             -0.317498820727340E+00
             -0.109557330149621E+01
             -0.450745340706037E+00
             -0.295843392683945E+01
              0.713597125079003E+00
              0.642701808048396E+00
             -0.689906341506614E-01
             -0.851500360330892E+00
             -0.432800385993946E+00
             -0.127658787824819E+01
              0.141123390233004E+00
              0.181167652514681E+01
             -0.423605981902616E+00
             -0.427758729425561E+00
              0.431457254021367E+00
             -0.114627798120542E+01
              0.197030336580924E+01
              0.364434102031809E+00
              0.161394337734334E+00
              0.119511953563720E+01
             -0.120070630547707E+00
              0.134452358911701E+01
              0.448209160986359E+00
             -0.579486639371738E-01
              0.309697822777984E+00
             -0.212014494470463E+00
              0.154933412203472E+01
              0.163658358967487E+00
              0.473597468948114E+00
             -0.198339200031574E+00
              0.241927669096884E+00
             -0.214811505953801E+01
             -0.817847218209399E+00
             -0.112289043243720E+01
              0.116552800048349E+01
             -0.803529069537844E+00
             -0.128818943141247E+01
              0.136325278496328E+01
             -0.322023531328199E+00
              0.952232691586241E+00
             -0.204555974441676E+01
              0.427676178389766E+00
              0.100407976278746E+00
              0.140131554320355E+00
             -0.298065870733913E+00
             -0.144174934371206E+00
              0.114373000281129E+01
              0.636360730450836E-01
             -0.119460800898761E+01
             -0.485911361872744E+00
              0.442810580538487E+00
             -0.263993902847018E+01
             -0.200216595726015E+01
              0.219323751587019E-01
              0.360351172482093E+00
             -0.114754893759310E+01
              0.132295471935899E-01
              0.236235508158659E+01
              0.688641068338091E+00
             -0.123507732233822E+01
              0.178773615925674E+00
             -0.240318549295991E+00
              0.292482887477562E+00
             -0.807201505570912E+00
              0.512968250718351E+00
              0.538534507149235E+00
             -0.201772850922856E+00
              0.257068726741872E+01
             -0.102853475713284E+00
             -0.714068791884158E+00
              0.700718059402035E+00
              0.978313959150233E+00
             -0.745228075326647E+00
             -0.208512162182712E-01
              0.223466271681733E+01
             -0.363816600291589E-01
              0.118753445467068E+01
              0.376690678340207E+00
             -0.168466088806288E+00
             -0.358172621407425E+00
              0.110875386586000E+01
             -0.135817781640376E+01
             -0.526915473272318E-01
             -0.452419902741049E+00
             -0.928574154983769E+00
              0.254907633414152E+00
              0.554418921435654E+00
             -0.210007328670923E-01
             -0.437377551332361E-01
             -0.938848576586597E+00
              0.354446565027243E+00
             -0.311825007967736E-01
             -0.508546686815034E+00
             -0.467841197708137E+00
              0.403730890848697E+00
             -0.119551657071924E-01
             -0.882638320447962E+00
             -0.244760016348278E+01
              0.140355809123658E+00
              0.361209591383073E+00
             -0.110356124923393E+01
             -0.567404906421309E+00
              0.187620560008914E+01
              0.281441415208956E+00
              0.998971826866235E+00
              0.239445450426162E+00
              0.905450686520829E+00
              0.526629570370005E-01
             -0.912233934017899E+00
             -0.251481550014926E+00
              0.126251855856732E+00
              0.705784910067539E+00
              0.172534728279182E+01
              0.112583785875836E+01
              0.673214804115903E-01
              0.253770594777418E+00
              0.138301055128197E+01
              0.642198583686724E+00
             -0.159945572281580E+01
             -0.636013337942249E+00
              0.265006350804002E+00
              0.231225390680874E+00
              0.580004133895947E+00
             -0.117625671007063E+01
              0.122528950561211E+00
              0.935764342263106E+00
              0.111728947510917E+01
             -0.972194187050569E+00
              0.537062564841264E-01
             -0.610671575313084E-01
             -0.478965071234037E+00
             -0.590637971639680E+00
             -0.274895268427533E+00
             -0.262964120414397E+00
              0.253212899400181E+00
              0.958279198555204E+00
             -0.742659974623861E+00
              0.184956297852460E+01
              0.772540142494314E+00
              0.595586438613694E+00
              0.844513259060393E+00
              0.578819496600562E+00
              0.789000480448192E+00
              0.126919555882763E+01
             -0.108201556636679E+01
              0.143672574803529E+01
             -0.259337787640384E+01
              0.723505743873117E+00
             -0.240744591073189E+01
              0.184199806214251E+01
              0.178758147939666E+01
             -0.193057335482915E+00
             -0.107945629832556E+01
             -0.979052186501526E+00
             -0.123861993010282E+01
             -0.149552601269405E+01
              0.124722701104566E+01
              0.982102546112345E+00
              0.558370396959786E+00
              0.598598459547071E+00
              0.100942986155531E+01
             -0.933865355112305E+00
             -0.336319927388262E+00
              0.121879800413154E+01
             -0.272371438058689E+00
              0.112911860533564E+01
              0.176496672114421E+01
             -0.744114207760800E-01
             -0.172164159790566E+01
              0.112926570003239E+00
              0.401680360513695E-01
             -0.239422946856784E+00
              0.781113407455640E-01
             -0.148340033378715E+01
             -0.211717690457282E+00
              0.307092005759040E+00
              0.310131744786537E+00
              0.114000576034751E+01
             -0.954761686150334E+00
              0.120206403112752E+01
             -0.877977060369913E+00
              0.612989958181378E+00
              0.996232682152165E+00
 
 BEEF-vdW xc energy contributions
           1 :   -16.1562355883734     
           2 :    13.4173337296451     
           3 :   -9.45435566135843     
           4 :    5.70537642495035     
           5 :   -2.85008168808764     
           6 :    1.01959353712381     
           7 :  -6.420528193888231E-002
           8 :  -0.304220238273228     
           9 :   0.393856497354140     
          10 :  -0.439960688929212     
          11 :   0.534772558413877     
          12 :  -0.644532080893640     
          13 :   0.693140579987457     
          14 :  -0.644864044753199     
          15 :   0.516955547146953     
          16 :  -0.355043145384965     
          17 :   0.205867565417336     
          18 :  -0.101598485523908     
          19 :   4.661630507875358E-002
          20 :  -2.341195985309596E-002
          21 :   8.470646096313317E-003
          22 :   1.105292853514683E-002
          23 :  -3.403472131714480E-002
          24 :   4.889108751060434E-002
          25 :  -4.624983250873171E-002
          26 :   2.798095049579175E-002
          27 :  -3.716726538062431E-003
          28 :  -2.036437340812469E-002
          29 :   3.959749577185789E-002
          30 :  -4.789707409610955E-002
          31 :   -2.09222407188715     
          32 :   -1.31050992842871     

     Writing output data file ./pwscf.save/
 
     init_run     :     74.45s CPU     77.16s WALL (       1 calls)
     electrons    :    571.76s CPU    625.75s WALL (       1 calls)
     forces       :     33.44s CPU     35.91s WALL (       1 calls)

     Called by init_run:
     wfcinit      :      2.05s CPU      2.12s WALL (       1 calls)
     potinit      :     57.93s CPU     59.75s WALL (       1 calls)
     hinit0       :     12.43s CPU     12.55s WALL (       1 calls)

     Called by electrons:
     c_bands      :     99.50s CPU    100.61s WALL (      16 calls)
     sum_band     :     52.52s CPU     62.88s WALL (      16 calls)
     v_of_rho     :    315.39s CPU    344.42s WALL (      17 calls)
     newd         :     23.56s CPU     34.18s WALL (      17 calls)
     PAW_pot      :      2.29s CPU      2.29s WALL (      17 calls)
     mix_rho      :    128.55s CPU    133.71s WALL (      16 calls)
     vdW_kernel   :     33.90s CPU     33.90s WALL (       1 calls)

     Called by c_bands:
     init_us_2    :      1.77s CPU      1.80s WALL (      33 calls)
     regterg      :     96.07s CPU     97.17s WALL (      16 calls)

     Called by *egterg:
     rdiaghg      :      0.03s CPU      0.03s WALL (     142 calls)
     h_psi        :     84.81s CPU     84.83s WALL (     143 calls)
     s_psi        :      2.47s CPU      2.47s WALL (     143 calls)
     g_psi        :      0.29s CPU      0.29s WALL (     126 calls)

     Called by h_psi:
     h_psi:calbec :      2.09s CPU      2.09s WALL (     143 calls)
     vloc_psi     :     79.75s CPU     79.75s WALL (     143 calls)
     add_vuspsi   :      2.50s CPU      2.51s WALL (     143 calls)

     General routines
     calbec       :      2.53s CPU      2.54s WALL (     163 calls)
     fft          :    264.10s CPU    264.12s WALL (    2932 calls)
     ffts         :     53.08s CPU     53.09s WALL (     615 calls)
     fftw         :     75.95s CPU     75.95s WALL (     872 calls)
 
     Parallel routines
 
     PWSCF        :  19m55.62s CPU  21m51.47s WALL

 
   This run was terminated on:  23:17:20   3Jan2023            

=------------------------------------------------------------------------------=
   JOB DONE.
=------------------------------------------------------------------------------=
