
     Program PWSCF v.6.8 starts on 20Dec2022 at 16:16:46 

     This program is part of the open-source Quantum ESPRESSO suite
     for quantum simulation of materials; please cite
         "P. Giannozzi et al., J. Phys.:Condens. Matter 21 395502 (2009);
         "P. Giannozzi et al., J. Phys.:Condens. Matter 29 465901 (2017);
         "P. Giannozzi et al., J. Chem. Phys. 152 154105 (2020);
          URL http://www.quantum-espresso.org", 
     in publications or presentations arising from this work. More details at
     http://www.quantum-espresso.org/quote

     Parallel version (MPI), running on     1 processors

     MPI processes distributed on     1 nodes
     359245 MiB available memory on the printing compute node when the environment starts
 
     Reading input from ch3-gas-ensemble.in
Warning: card &CELL ignored
Warning: card / ignored

     Current dimensions of program PWSCF are:
     Max number of different atomic species (ntypx) = 10
     Max number of k-points (npk) =  40000
     Max angular momentum in pseudopotentials (lmaxx) =  4
     file C.pbe-n-kjpaw_psl.1.0.0.UPF: wavefunction(s)  2S 2P renormalized
     file H.pbe-kjpaw_psl.1.0.0.UPF: wavefunction(s)  1S renormalized

     **************************************************************************
     Initializing libbeef V0.1.2 with the BEEF-vdW functional.
     Citation: Wellendorff et al., PRB 85, 235149 (2012).
     **************************************************************************


     IMPORTANT: XC functional enforced from input :
     Exchange-correlation= BEEF-VDW
                           (   1   4  43  14   2   0   0)
     Any further DFT definition will be discarded
     Please, verify this is what you really want


     gamma-point specific algorithms are used

     Subspace diagonalization in iterative solution of the eigenvalue problem:
     a serial algorithm will be used

 
     G-vector sticks info
     --------------------
     sticks:   dense  smooth     PW     G-vecs:    dense   smooth      PW
     Sum       32243   32243   8053              4005765  4005765  500689
 
     Using Slab Decomposition
 


     bravais-lattice index     =            0
     lattice parameter (alat)  =      41.3243  a.u.
     unit-cell volume          =   63802.9354 (a.u.)^3
     number of atoms/cell      =            4
     number of atomic types    =            2
     number of electrons       =         7.00
     number of Kohn-Sham states=            8
     kinetic-energy cutoff     =      60.0000  Ry
     charge density cutoff     =     240.0000  Ry
     scf convergence threshold =      1.0E-06
     mixing beta               =       0.7000
     number of iterations used =            8  local-TF  mixing
     Exchange-correlation= BEEF-VDW
                           (   1   4  43  14   2   0   0)

     celldm(1)=  41.324266  celldm(2)=   0.000000  celldm(3)=   0.000000
     celldm(4)=   0.000000  celldm(5)=   0.000000  celldm(6)=   0.000000

     crystal axes: (cart. coord. in units of alat)
               a(1) = (   1.000000   0.000000   0.000000 )  
               a(2) = (   0.000000   0.988556   0.000000 )  
               a(3) = (   0.000000   0.000000   0.914584 )  

     reciprocal axes: (cart. coord. in units 2 pi/alat)
               b(1) = (  1.000000  0.000000  0.000000 )  
               b(2) = (  0.000000  1.011576  0.000000 )  
               b(3) = (  0.000000  0.000000  1.093393 )  


     PseudoPot. # 1 for C  read from file:
     /users/bkreitz1/quantum-espresso/potentials/C.pbe-n-kjpaw_psl.1.0.0.UPF
     MD5 check sum: a169b0ebad56f5ec0d79c4633f80bf22
     Pseudo is Projector augmented-wave + core cor, Zval =  4.0
     Generated using 'atomic' code by A. Dal Corso  v.6.7MaX
     Shape of augmentation charge: PSQ
     Using radial grid of 1073 points,  4 beta functions with: 
                l(1) =   0
                l(2) =   0
                l(3) =   1
                l(4) =   1
     Q(r) pseudized with 0 coefficients 


     PseudoPot. # 2 for H  read from file:
     /users/bkreitz1/quantum-espresso/potentials/H.pbe-kjpaw_psl.1.0.0.UPF
     MD5 check sum: ae98473e6dc62675f0d0baffdab24f65
     Pseudo is Projector augmented-wave, Zval =  1.0
     Generated using 'atomic' code by A. Dal Corso  v.6.7MaX
     Shape of augmentation charge: PSQ
     Using radial grid of  929 points,  2 beta functions with: 
                l(1) =   0
                l(2) =   0
     Q(r) pseudized with 0 coefficients 


     atomic species   valence    mass     pseudopotential
        C              4.00    12.01100     C ( 1.00)
        H              1.00     1.00800     H ( 1.00)

     Starting magnetic structure 
     atomic species   magnetization
        C            0.250
        H            0.000

     No symmetry found



   Cartesian axes

     site n.     atom                  positions (alat units)
         1           C   tau(   1) = (   0.5000000   0.4819495   0.4572921  )
         2           H   tau(   2) = (   0.5000000   0.5312644   0.4572921  )
         3           H   tau(   3) = (   0.5427079   0.4572921   0.4572921  )
         4           H   tau(   4) = (   0.4572921   0.4572921   0.4577494  )

     number of k points=     1  Gaussian smearing, width (Ry)=  0.0050
                       cart. coord. in units 2pi/alat
        k(    1) = (   0.0000000   0.0000000   0.0000000), wk =   1.0000000

     Dense  grid:  2002883 G-vectors     FFT dimensions: ( 216, 216, 192)

     Estimated max dynamical RAM per process >       4.07 GB
     Generating pointlists ...
     new r_m :   0.0203 (alat units)  0.8406 (a.u.) for type    1
     new r_m :   0.0203 (alat units)  0.8406 (a.u.) for type    2

     Initial potential from superposition of free atoms

     starting charge    6.99993, renormalised to    7.00000

     negative rho (up, down):  3.217E-03 1.942E-03


     %%%%%%%%%%%%%%%%%%%%%%%%%%%%%%%%%%%%%%%%%%%%%%%%%%%%%%%%%%%%%%%%%%%%%%%%
     %                                                                      %
     % You are using vdW-DF, which was implemented by the Thonhauser group. %
     % Please cite the following two papers that made this development      %
     % possible and the two reviews that describe the various versions:     %
     %                                                                      %
     %   T. Thonhauser et al., PRL 115, 136402 (2015).                      %
     %   T. Thonhauser et al., PRB 76, 125112 (2007).                       %
     %   K. Berland et al., Rep. Prog. Phys. 78, 066501 (2015).             %
     %   D.C. Langreth et al., J. Phys.: Condens. Matter 21, 084203 (2009). %
     %                                                                      %
     %                                                                      %
     % If you are calculating the stress with vdW-DF, please also cite:     %
     %                                                                      %
     %   R. Sabatini et al., J. Phys.: Condens. Matter 24, 424209 (2012).   %
     %                                                                      %
     %%%%%%%%%%%%%%%%%%%%%%%%%%%%%%%%%%%%%%%%%%%%%%%%%%%%%%%%%%%%%%%%%%%%%%%%


     Starting wfcs are    7 randomized atomic wfcs +    1 random wfcs
     Checking if some PAW data can be deallocated... 

     total cpu time spent up to now is       82.0 secs

     Self-consistent Calculation

     iteration #  1     ecut=    60.00 Ry     beta= 0.70
     Davidson diagonalization with overlap
     ethr =  1.00E-02,  avg # of iterations =  5.0

     negative rho (up, down):  2.252E-03 1.240E-03

     total cpu time spent up to now is      135.9 secs

     total energy              =     -22.56722921 Ry
     estimated scf accuracy    <       0.45292437 Ry

     total magnetization       =     1.00 Bohr mag/cell
     absolute magnetization    =     1.10 Bohr mag/cell

     iteration #  2     ecut=    60.00 Ry     beta= 0.70
     Davidson diagonalization with overlap
     ethr =  6.47E-03,  avg # of iterations =  1.0

     negative rho (up, down):  1.202E-03 5.937E-04

     total cpu time spent up to now is      187.2 secs

     total energy              =     -22.53759895 Ry
     estimated scf accuracy    <       0.10178575 Ry

     total magnetization       =     1.00 Bohr mag/cell
     absolute magnetization    =     1.11 Bohr mag/cell

     iteration #  3     ecut=    60.00 Ry     beta= 0.70
     Davidson diagonalization with overlap
     ethr =  1.45E-03,  avg # of iterations =  4.0

     negative rho (up, down):  3.339E-04 2.979E-03

     total cpu time spent up to now is      241.5 secs

     total energy              =     -22.54633129 Ry
     estimated scf accuracy    <       0.01447184 Ry

     total magnetization       =     1.00 Bohr mag/cell
     absolute magnetization    =     1.12 Bohr mag/cell

     iteration #  4     ecut=    60.00 Ry     beta= 0.70
     Davidson diagonalization with overlap
     ethr =  2.07E-04,  avg # of iterations =  8.0

     negative rho (up, down):  1.406E-02 2.109E-02

     total cpu time spent up to now is      300.4 secs

     total energy              =     -22.54400918 Ry
     estimated scf accuracy    <       0.00649215 Ry

     total magnetization       =     1.00 Bohr mag/cell
     absolute magnetization    =     1.12 Bohr mag/cell

     iteration #  5     ecut=    60.00 Ry     beta= 0.70
     Davidson diagonalization with overlap
     ethr =  9.27E-05,  avg # of iterations =  7.0

     negative rho (up, down):  3.536E-02 3.886E-02

     total cpu time spent up to now is      357.2 secs

     total energy              =     -22.54562988 Ry
     estimated scf accuracy    <       0.00246691 Ry

     total magnetization       =     1.00 Bohr mag/cell
     absolute magnetization    =     1.12 Bohr mag/cell

     iteration #  6     ecut=    60.00 Ry     beta= 0.70
     Davidson diagonalization with overlap
     ethr =  3.52E-05,  avg # of iterations =  6.5

     negative rho (up, down):  2.466E-02 2.842E-02

     total cpu time spent up to now is      413.9 secs

     total energy              =     -22.54528740 Ry
     estimated scf accuracy    <       0.00072362 Ry

     total magnetization       =     1.00 Bohr mag/cell
     absolute magnetization    =     1.12 Bohr mag/cell

     iteration #  7     ecut=    60.00 Ry     beta= 0.70
     Davidson diagonalization with overlap
     ethr =  1.03E-05,  avg # of iterations =  8.0

     negative rho (up, down):  2.743E-02 2.756E-02

     total cpu time spent up to now is      471.0 secs

     total energy              =     -22.54545528 Ry
     estimated scf accuracy    <       0.00046467 Ry

     total magnetization       =     1.00 Bohr mag/cell
     absolute magnetization    =     1.11 Bohr mag/cell

     iteration #  8     ecut=    60.00 Ry     beta= 0.70
     Davidson diagonalization with overlap
     ethr =  6.64E-06,  avg # of iterations =  6.5

     negative rho (up, down):  1.507E-02 1.480E-02

     total cpu time spent up to now is      525.6 secs

     total energy              =     -22.54532380 Ry
     estimated scf accuracy    <       0.00016392 Ry

     total magnetization       =     1.00 Bohr mag/cell
     absolute magnetization    =     1.11 Bohr mag/cell

     iteration #  9     ecut=    60.00 Ry     beta= 0.70
     Davidson diagonalization with overlap
     ethr =  2.34E-06,  avg # of iterations = 12.0

     negative rho (up, down):  1.248E-02 1.203E-02

     total cpu time spent up to now is      583.2 secs

     total energy              =     -22.54541653 Ry
     estimated scf accuracy    <       0.00007267 Ry

     total magnetization       =     1.00 Bohr mag/cell
     absolute magnetization    =     1.11 Bohr mag/cell

     iteration # 10     ecut=    60.00 Ry     beta= 0.70
     Davidson diagonalization with overlap
     ethr =  1.04E-06,  avg # of iterations =  5.5

     negative rho (up, down):  7.648E-03 6.732E-03

     total cpu time spent up to now is      634.6 secs

     total energy              =     -22.54551960 Ry
     estimated scf accuracy    <       0.00002773 Ry

     total magnetization       =     1.00 Bohr mag/cell
     absolute magnetization    =     1.12 Bohr mag/cell

     iteration # 11     ecut=    60.00 Ry     beta= 0.70
     Davidson diagonalization with overlap
     ethr =  3.96E-07,  avg # of iterations = 13.0

     negative rho (up, down):  6.367E-03 5.107E-03

     total cpu time spent up to now is      692.1 secs

     total energy              =     -22.54554866 Ry
     estimated scf accuracy    <       0.00001774 Ry

     total magnetization       =     1.00 Bohr mag/cell
     absolute magnetization    =     1.12 Bohr mag/cell

     iteration # 12     ecut=    60.00 Ry     beta= 0.70
     Davidson diagonalization with overlap
     ethr =  2.53E-07,  avg # of iterations =  6.5

     negative rho (up, down):  5.865E-03 4.372E-03

     total cpu time spent up to now is      743.9 secs

     total energy              =     -22.54556783 Ry
     estimated scf accuracy    <       0.00000594 Ry

     total magnetization       =     1.00 Bohr mag/cell
     absolute magnetization    =     1.12 Bohr mag/cell

     iteration # 13     ecut=    60.00 Ry     beta= 0.70
     Davidson diagonalization with overlap
     ethr =  8.48E-08,  avg # of iterations =  6.5

     negative rho (up, down):  5.461E-03 3.781E-03
 
     Magnetic moment per site  (integrated on atomic sphere of radius R)
     atom   1 (R=0.020)  charge=  0.8117  magn=  0.1831
     atom   2 (R=0.020)  charge=  0.4964  magn= -0.0088
     atom   3 (R=0.020)  charge=  0.4962  magn= -0.0088
     atom   4 (R=0.020)  charge=  0.4964  magn= -0.0088

     total cpu time spent up to now is      788.1 secs

     End of self-consistent calculation

 ------ SPIN UP ------------


          k = 0.0000 0.0000 0.0000 (250345 PWs)   bands (ev):

   -17.3188 -10.5950 -10.5939  -5.7105  -0.8657  -0.3424  -0.1707  -0.1651

 ------ SPIN DOWN ----------


          k = 0.0000 0.0000 0.0000 (250345 PWs)   bands (ev):

   -16.2720 -10.3154 -10.3151  -3.0326  -0.7188  -0.3308  -0.1641  -0.1587

     the Fermi energy is    -4.1086 ev

!    total energy              =     -22.54557631 Ry

     total all-electron energy =       -80.309660 Ry
     estimated scf accuracy    <       0.00000030 Ry
     smearing contrib. (-TS)   =      -0.00000000 Ry
     internal energy E=F+TS    =     -22.54557631 Ry

     The total energy is F=E-TS. E is the sum of the following terms:
     one-electron contribution =     -39.70813781 Ry
     hartree contribution      =      20.72410589 Ry
     xc contribution           =      -7.02588901 Ry
     ewald contribution        =      10.01053086 Ry
     one-center paw contrib.   =      -6.54618624 Ry

     total magnetization       =     1.00 Bohr mag/cell
     absolute magnetization    =     1.11 Bohr mag/cell

     convergence has been achieved in  13 iterations

     negative rho (up, down):  5.461E-03 3.781E-03

     Forces acting on atoms (cartesian axes, Ry/au):

     atom    1 type  1   force =    -0.00005722   -0.00031869    0.00040627
     atom    2 type  2   force =     0.00000175   -0.00022870   -0.00014417
     atom    3 type  2   force =    -0.00028599    0.00025835   -0.00014751
     atom    4 type  2   force =     0.00034146    0.00028904   -0.00011459

     Total force =     0.000852     Total SCF correction =     0.000082

     negative rho (up, down):  5.461E-03 3.781E-03

     negative rho (up, down):  5.461E-03 3.781E-03

     negative rho (up, down):  5.461E-03 3.781E-03

     negative rho (up, down):  5.461E-03 3.781E-03

     negative rho (up, down):  5.461E-03 3.781E-03

     negative rho (up, down):  5.461E-03 3.781E-03

     negative rho (up, down):  5.461E-03 3.781E-03

     negative rho (up, down):  5.461E-03 3.781E-03

     negative rho (up, down):  5.461E-03 3.781E-03

     negative rho (up, down):  5.461E-03 3.781E-03

     negative rho (up, down):  5.461E-03 3.781E-03

     negative rho (up, down):  5.461E-03 3.781E-03

     negative rho (up, down):  5.461E-03 3.781E-03

     negative rho (up, down):  5.461E-03 3.781E-03

     negative rho (up, down):  5.461E-03 3.781E-03

     negative rho (up, down):  5.461E-03 3.781E-03

     negative rho (up, down):  5.461E-03 3.781E-03

     negative rho (up, down):  5.461E-03 3.781E-03

     negative rho (up, down):  5.461E-03 3.781E-03

     negative rho (up, down):  5.461E-03 3.781E-03

     negative rho (up, down):  5.461E-03 3.781E-03

     negative rho (up, down):  5.461E-03 3.781E-03

     negative rho (up, down):  5.461E-03 3.781E-03

     negative rho (up, down):  5.461E-03 3.781E-03

     negative rho (up, down):  5.461E-03 3.781E-03

     negative rho (up, down):  5.461E-03 3.781E-03

     negative rho (up, down):  5.461E-03 3.781E-03

     negative rho (up, down):  5.461E-03 3.781E-03

     negative rho (up, down):  5.461E-03 3.781E-03

     negative rho (up, down):  5.461E-03 3.781E-03

     negative rho (up, down):  5.461E-03 3.781E-03

     negative rho (up, down):  5.461E-03 3.781E-03

     negative rho (up, down):  5.461E-03 3.781E-03

     negative rho (up, down):  5.461E-03 3.781E-03
 BEEFens 2000 ensemble energies
             -0.550576792394306E+00
             -0.134152760337589E-01
             -0.104137889716036E+00
              0.368824815564911E+00
             -0.181966221017939E+00
             -0.118937832392919E+00
             -0.411622080011520E+00
             -0.832274411367440E+00
             -0.272233895560129E+00
             -0.291656724537475E+00
             -0.297813877034626E+00
              0.613912536904913E-01
              0.266570254186764E-01
             -0.522287949780624E-01
              0.298645815868113E-01
              0.392204204291476E+00
             -0.158723396690963E+00
             -0.549321789080652E-01
              0.209492546831074E+00
             -0.926491450959500E+00
              0.467750489048324E+00
             -0.146442190774446E+00
             -0.532284801549968E-01
             -0.712202202176657E-01
              0.411776623372724E-01
             -0.373593628042382E-01
              0.742967036277318E+00
             -0.195329373106766E+00
             -0.572722104353245E-01
             -0.470526396885796E+00
              0.552954167885825E+00
             -0.122963707312844E-01
             -0.346763882769650E+00
              0.138121148326664E+00
             -0.250811300330775E-01
              0.261904443280596E+00
              0.241981603453474E-01
             -0.121732151266438E-01
              0.337297595990393E+00
             -0.823189219153441E+00
              0.458743910900342E+00
              0.956404418166565E-01
             -0.123702649655112E+00
             -0.235176661281872E+00
              0.102825084937633E+00
             -0.156731551859140E+00
              0.432971215213382E+00
              0.296792236168745E+00
             -0.140549600433785E+00
             -0.276768589543395E+00
             -0.253193408867534E+00
             -0.321623615688603E+00
              0.211925921999762E+00
             -0.436907641942087E+00
              0.139998424151906E+00
              0.516881039558722E+00
              0.643850572819668E+00
              0.270632574612744E+00
              0.138593026393546E+00
              0.279597481975972E+00
              0.770157993135675E+00
              0.127638243769699E+00
             -0.459644757900676E+00
             -0.740447265832387E-01
             -0.259242537397613E+00
              0.514433676209093E+00
             -0.597309987348643E+00
             -0.490579952350164E+00
             -0.299090060060603E+00
             -0.192045420476904E+00
             -0.309709852052980E+00
              0.237478481768431E+00
              0.122162824457051E+00
              0.142141665850250E+00
             -0.327225377402095E+00
             -0.294502261367558E+00
             -0.494367686504893E+00
              0.246026296574047E+00
             -0.291671154759735E+00
              0.280917199667682E+00
             -0.777826696621607E-01
             -0.232027510512821E+00
             -0.406328264129384E+00
             -0.118369499409795E+00
             -0.149961812041982E+00
             -0.119234172612948E+00
              0.323866423098676E+00
              0.672203479720251E+00
             -0.395206359727037E+00
             -0.658359978354456E+00
             -0.152021299801743E+00
              0.906927397316597E+00
             -0.465537763481253E+00
              0.249458501048138E+00
             -0.939888115533316E-01
             -0.493432044113315E+00
              0.242509364286048E+00
              0.239717113465901E+00
             -0.114143036909560E+00
              0.225300158687606E+00
             -0.207648804858962E+00
             -0.533470522722828E+00
              0.867519410825018E+00
              0.366985405235336E+00
              0.155623296894319E+00
              0.998363738460768E-01
              0.191918963480308E+00
              0.681003978239832E+00
             -0.231817960919430E+00
              0.176010677232656E-01
             -0.115352689718833E+01
              0.144251820739889E+00
             -0.547114048258147E+00
              0.102270236041747E+00
              0.179711665973936E+00
             -0.315302417513704E+00
             -0.410376232955480E+00
              0.161471784272891E-01
             -0.265191506394715E+00
              0.382635122649939E+00
             -0.363706722833088E+00
             -0.864603179163366E-01
             -0.330030824757288E+00
             -0.212219600064332E-01
              0.549553827069504E-01
              0.202479935206946E+00
             -0.294037140378034E-02
             -0.585186733567413E-01
              0.573606053580347E+00
              0.772736606516772E+00
              0.415046455866189E+00
              0.513406518263046E+00
             -0.121343503506502E+00
              0.533224983101115E-01
              0.423724237224089E+00
              0.727968193213384E-01
             -0.643440585699024E+00
             -0.386658908696025E+00
             -0.412862421919869E+00
             -0.251678058403339E+00
              0.208733566639801E+00
             -0.102825559559642E+01
             -0.882001859551096E-01
              0.395117676159920E+00
             -0.352040073252509E+00
             -0.229116977985259E+00
              0.493751665246876E+00
              0.429347984730796E+00
             -0.227404239846702E+00
              0.309686186327185E+00
             -0.207889631443296E+00
              0.320913796773017E+00
              0.633638299399790E-01
              0.799886338193025E-01
             -0.685010294859906E+00
             -0.406731013361353E+00
             -0.769357034659732E-01
             -0.434625153442123E-01
             -0.363370820805632E+00
              0.944989793971951E+00
             -0.679545044119907E-01
             -0.214671790256729E+00
              0.315548606861000E+00
             -0.359692995544387E+00
             -0.323372338737381E+00
              0.286432397359556E+00
              0.999372883153299E-01
              0.907585699604141E-01
              0.144244112763458E+00
             -0.824172008317525E-01
              0.680976579067603E-01
              0.487879595248862E+00
             -0.212228097326223E+00
              0.196415926102345E+00
              0.741286115251657E+00
              0.254129801190978E+00
             -0.204309309012807E-01
             -0.174815010527834E+00
              0.130061311690697E+01
             -0.220275041506298E+00
              0.343725820485979E+00
              0.276199466547827E+00
              0.215184662207429E+00
              0.779570782498084E+00
              0.369302710904848E+00
             -0.412900021520851E-01
              0.208939051413406E+00
              0.439240539371140E+00
              0.310291625876984E+00
             -0.518720151986975E+00
              0.800589998264360E+00
             -0.728149191930283E+00
             -0.692270064754695E-01
              0.463105739689912E+00
              0.166333560591915E+00
              0.400995694629369E-01
              0.213953636090369E+00
              0.117816036782428E+00
              0.259322765066292E+00
             -0.515748923965367E+00
              0.296600534049198E-01
             -0.186516019324688E+00
             -0.323406784613420E-01
             -0.318841129884309E-01
             -0.115125422291578E+00
             -0.568062261120543E-01
              0.699754624063204E+00
             -0.388793276143581E-01
             -0.241000287675537E+00
             -0.138289475087522E-01
              0.120141937922668E+00
             -0.544083135111343E+00
             -0.494270008673142E+00
             -0.277955612733780E+00
             -0.519716688748253E+00
             -0.155888390888738E+00
             -0.324839252155481E+00
              0.147093857080588E+00
              0.266551356613920E-01
             -0.109646625088153E+00
             -0.618835746008262E-01
              0.376558910315776E-01
             -0.999969582352307E-01
              0.547523029284812E+00
             -0.744679216674803E+00
             -0.103338279946426E+00
             -0.110546358446407E+00
              0.133883695979352E+00
              0.190703368142075E+00
             -0.441788258698436E+00
             -0.754959432063846E-01
              0.378323342661671E+00
             -0.159659986056515E+00
              0.104503664227362E+00
              0.281854351711614E+00
              0.414118978497502E-02
              0.960181558630883E+00
             -0.606198921227037E-01
             -0.293122489697706E+00
             -0.164127846986828E-01
             -0.248229020659910E+00
              0.449835611981346E+00
             -0.436142840611710E+00
              0.132268486824787E+00
              0.376427876626038E+00
             -0.109176357340571E+00
              0.979601279407412E+00
              0.105889997050898E+01
             -0.610110941778044E+00
              0.476613154130044E+00
              0.211764584608306E+00
             -0.478043587969801E+00
              0.141912296475353E+00
              0.372716249450920E+00
              0.409070964688457E+00
              0.500768528604187E-01
              0.170642685549117E+00
              0.641404998157170E+00
             -0.190930877381173E+00
              0.694056816417028E-01
              0.549574972110510E+00
             -0.305222049437738E+00
             -0.228224199263471E+00
              0.513354824137348E+00
              0.267687381917274E+00
              0.637083333555214E+00
              0.317184218097085E+00
              0.125287123879857E+00
              0.197987993361191E+00
              0.369725523708531E+00
             -0.458110919202468E+00
              0.687596746631760E-01
              0.260282212159735E+00
              0.803987249881977E-01
              0.210731542235219E+00
             -0.533134588143520E+00
              0.260960504964349E+00
             -0.359554007780995E+00
             -0.254249375137345E+00
              0.167381803562052E+00
             -0.651522349321410E-01
              0.505991650813275E+00
             -0.911725155421927E-01
              0.236603075558930E+00
              0.240613889887184E+00
              0.633345429453471E+00
              0.437238016438124E+00
              0.445961848862751E+00
             -0.456792543434581E-02
             -0.104351147240015E+00
             -0.245755615825624E+00
              0.702728372675562E+00
              0.700799766101148E+00
              0.327401979768261E+00
             -0.250310203940121E+00
              0.410110883557295E+00
              0.241068386419592E-01
              0.133423334678330E+00
              0.605313398160058E+00
             -0.333475813335049E-01
             -0.916410264087497E-01
             -0.163848841923917E+00
             -0.536896987267118E+00
              0.802268682666130E+00
              0.440448598643665E+00
             -0.553252754327693E+00
             -0.189652726533985E+00
              0.206810653499758E+00
             -0.910778706599888E-01
              0.559903019611229E+00
              0.125680313649549E+00
              0.685543960101725E+00
              0.259062794147502E+00
             -0.174931783159473E+00
              0.126355482060924E+00
             -0.614098752809131E-01
             -0.195702004685143E+00
              0.140084146691525E+00
              0.121880257377458E+00
              0.759349437601540E+00
              0.635781402630187E+00
              0.488989712334195E+00
              0.561374559926607E+00
              0.612181146700030E-01
             -0.212814879927950E+00
              0.104837454826159E+00
             -0.276925016863867E+00
             -0.492720189327053E+00
             -0.467087543310654E+00
             -0.275913345260197E+00
             -0.918310499411270E+00
             -0.323649132419224E+00
             -0.733047330998506E+00
              0.170886032549846E+00
             -0.380630038254402E+00
              0.451365947544126E+00
             -0.839080576208600E+00
             -0.238277562404445E+00
              0.296362763022593E+00
              0.179813331685207E+00
             -0.767784585729887E+00
              0.430868530567717E+00
             -0.242932594090064E+00
              0.476182513710863E+00
             -0.231201655161430E+00
             -0.653304164478812E+00
              0.163354519126654E+00
             -0.556807767865553E+00
             -0.127728677400838E-01
             -0.239024191520786E-01
              0.346888090196432E+00
              0.105783088314122E+01
             -0.353753122928816E+00
             -0.309095921616012E+00
             -0.724456969464855E-01
             -0.612200264427027E-01
             -0.663669744181896E+00
             -0.478831442153601E+00
              0.417480153785587E+00
             -0.131420452262375E+00
              0.196681165041566E+00
             -0.417357105409636E+00
             -0.133742928506054E+00
             -0.350772708164538E+00
              0.392638234463564E+00
              0.966514823380145E-01
             -0.212347057948720E+00
             -0.164082542262386E+00
              0.127260415925587E+00
             -0.687935853781081E-01
              0.329832113131368E+00
             -0.230906360554849E+00
              0.107828947053082E+00
              0.286059068799480E+00
              0.985305052716878E-01
             -0.216973164110919E+00
              0.130140115393776E+01
              0.518720387178409E+00
              0.908558878719902E-01
              0.422990895019293E-01
             -0.512942824455595E+00
              0.282490520265819E+00
             -0.659952069188134E+00
             -0.297429293323635E+00
             -0.519302959165932E+00
             -0.150049306816458E+00
              0.496535194872899E+00
             -0.492595553552984E+00
              0.240304364695137E+00
             -0.396912281380684E-01
              0.584960423683412E-02
             -0.254485841856049E+00
             -0.338307976163406E+00
             -0.777661097232270E-01
             -0.258632421368541E+00
             -0.177673892514912E+00
             -0.333912605052253E+00
             -0.306707185870141E-01
             -0.261155429113042E+00
             -0.400778380777560E+00
              0.182733292188272E+00
             -0.894378169355732E-01
              0.207525610791724E+00
              0.682712542649123E-01
             -0.634925141717978E+00
             -0.416797869928502E+00
             -0.437277794934050E+00
              0.258572753632372E+00
             -0.623353120222916E-01
             -0.515643824412198E+00
              0.475440717413064E+00
             -0.361253934117061E+00
              0.499678417887867E+00
             -0.262415933271624E+00
             -0.419161945925560E+00
              0.202588852345295E+00
             -0.616620636089484E+00
             -0.258790762651866E+00
              0.490801083692349E+00
              0.180909769472995E+00
             -0.374776658523396E+00
              0.491596712047825E+00
             -0.131689599994342E+00
             -0.311001894493851E+00
             -0.256128593267243E+00
             -0.449906910519480E+00
              0.218611612045872E+00
             -0.725491228140335E+00
             -0.638994781009632E+00
             -0.498851801034634E-01
             -0.234616309749995E+00
             -0.523070152985234E+00
              0.652713722895611E+00
              0.116818282637340E+01
             -0.157551999938470E+00
             -0.276859383293440E-01
             -0.511196888836916E+00
              0.551635857293940E+00
              0.190642989302388E+00
             -0.181588921060617E+00
             -0.295244315159030E+00
              0.109114317910841E+00
             -0.497716305007758E+00
             -0.787306751493571E-01
             -0.719455262287332E+00
              0.281416930974734E+00
              0.935063789075756E-01
             -0.549348573230404E-01
             -0.108569272665094E+00
             -0.370885589470767E+00
             -0.121243573890276E+00
              0.117302672377435E+01
             -0.116640743701599E+00
             -0.415176429176238E+00
             -0.584646514053997E+00
              0.122146939799220E+00
             -0.326241829096524E+00
              0.873938583143534E-01
              0.290442092203990E+00
              0.386669527613226E-01
              0.317631379068785E+00
              0.169245149594826E+00
              0.492036234354732E+00
              0.189824903148026E+00
             -0.310307239802254E+00
              0.469172289842781E+00
              0.289381023043185E+00
              0.109405097000322E+00
              0.304611524296304E+00
             -0.275278562431997E+00
              0.606511950361626E+00
              0.231642289032270E+00
             -0.303484500500309E+00
             -0.536874001643217E-01
             -0.130425220557299E+00
              0.112264483370111E+00
             -0.207530560318012E+00
             -0.118518720388394E+00
             -0.113978604268627E+00
              0.673020129834562E+00
              0.503865186879492E+00
             -0.536095959746102E+00
             -0.795455558383225E-01
             -0.418761063282020E+00
             -0.103836675496895E+00
             -0.179221390894395E+00
              0.104516491018747E+00
             -0.280983982397107E-01
             -0.251330205080676E+00
              0.149431468570858E+00
             -0.918942604358997E-01
             -0.607159973247337E-01
              0.731098710655825E+00
              0.117448317093278E+00
             -0.699024006488605E+00
             -0.317604623595613E+00
              0.804669744412803E+00
              0.188902687643242E+00
             -0.705165276271260E-01
              0.929619379873740E+00
             -0.138306752595125E+00
             -0.547162468743960E-01
             -0.117644919676565E+00
              0.141841051465953E+00
              0.288706061691729E+00
              0.237303912717419E-01
              0.245077299558150E+00
             -0.810665856801869E-01
             -0.355018663872064E+00
             -0.324987296256518E+00
             -0.413302359248726E+00
              0.343236314604247E+00
              0.127576151288151E+00
              0.323011951033687E+00
              0.144335063913632E+00
              0.763696374481243E+00
              0.174667161309434E+00
             -0.640396591228108E+00
             -0.279233884823684E+00
              0.118620278804564E-01
             -0.242866628842533E+00
              0.543003147060911E+00
             -0.137564061868354E+00
              0.139945926947182E+00
              0.472501257043744E+00
             -0.695717050481962E+00
              0.124741708292068E+01
              0.163880607019891E+00
              0.200199077654259E+00
              0.324018967568364E+00
              0.219765878462193E-01
             -0.203535681215286E-01
              0.273636818139776E+00
             -0.299174607641874E+00
              0.740278512236970E+00
              0.645444179893141E+00
             -0.324148377800253E+00
              0.153296272742359E+00
              0.613886329139868E+00
             -0.179957459341416E+00
              0.182166571587042E+00
              0.265182277694550E+00
              0.349460957029075E+00
             -0.620801731096623E+00
             -0.339956090396587E-01
             -0.209547194929032E+00
             -0.657904604257271E-01
             -0.708552474862081E-01
              0.717332582230026E-01
             -0.107162057567145E+00
             -0.254072735244334E+00
              0.148778983253446E+00
              0.447502646232438E-01
              0.448748183715843E+00
             -0.402518792905055E+00
              0.388346003661591E+00
              0.449471385344864E+00
             -0.695814648350468E-01
              0.608020921196293E+00
             -0.562921644072924E+00
             -0.869426988488486E+00
             -0.638522842086594E-01
             -0.511990228145827E-01
              0.258216954877977E-02
              0.650873266337509E+00
             -0.417894066654451E-02
              0.353993741692460E+00
              0.530188320080773E+00
              0.331097270087181E+00
             -0.452362362002932E-01
              0.502310848215981E+00
             -0.139978779789163E+00
             -0.339063577390318E+00
             -0.300215987099942E+00
              0.903092396020748E-01
              0.304617315621914E+00
             -0.243332727978807E-01
              0.285646486308424E+00
              0.151580004616243E-01
              0.449674380007370E+00
              0.132501296457596E+00
              0.595799596566218E-01
              0.111076305436932E-01
              0.242035964274349E+00
              0.339172417320018E+00
              0.119667724818911E+00
             -0.296797972962017E-01
             -0.458994083385198E+00
              0.247907741615141E+00
              0.176474710822086E+00
              0.281672740099642E+00
              0.249106349632435E+00
              0.300054223411574E+00
             -0.759723398823462E-01
              0.298172614925858E+00
             -0.254386149395139E+00
             -0.221302156764542E-01
             -0.446768426371483E+00
             -0.291625684850911E+00
              0.376418432455748E+00
             -0.745200182677345E+00
              0.196176188178954E+00
              0.122851769391134E+00
              0.738353123514411E+00
             -0.912654108267299E-01
              0.286272896569528E+00
             -0.920032044118670E-01
             -0.412929751514106E+00
             -0.551024588882324E+00
             -0.137347221459653E+00
             -0.778592506924236E+00
              0.630846007985468E-01
             -0.179017955630184E+00
              0.273101317939790E+00
              0.212565021924430E+00
             -0.248491714106624E+00
             -0.263541907624164E+00
              0.368479353971327E+00
             -0.480788987840170E+00
             -0.118431564516872E+00
             -0.127465985537070E+00
              0.239720581606356E+00
              0.531208175856266E-01
              0.253578091016455E-01
             -0.120850453472165E+00
              0.448693011186691E+00
             -0.526394293561129E+00
              0.552342269902217E-01
              0.513211792689704E+00
             -0.309244894621345E+00
              0.350953065919715E-01
              0.214089418260111E-01
             -0.549959160938085E+00
             -0.316996221747814E+00
             -0.593257614101889E-02
              0.274660146088210E+00
              0.290812807086162E+00
              0.418771790826504E-01
             -0.105936290619246E+00
              0.141219591184301E+00
             -0.341973867427743E+00
             -0.554640928609498E-01
             -0.455558762764840E+00
             -0.214189099200686E+00
              0.420818968022958E+00
             -0.262165500549788E+00
              0.598738034366219E+00
             -0.204675049711968E+00
              0.276903905574918E+00
              0.219924982420949E+00
             -0.497408540256575E+00
             -0.211756378944480E+00
              0.776919323721683E-01
             -0.352438866960538E+00
             -0.365888372000501E+00
             -0.751367806469589E+00
             -0.472875013160418E+00
             -0.408480523398536E+00
             -0.384494844835015E+00
              0.799517256997229E-03
              0.218379080776284E+00
              0.107556749249498E+00
              0.238923042420692E+00
             -0.504152980114312E+00
              0.109552695655033E+00
              0.257354536736376E+00
             -0.588362445623082E+00
             -0.469465242527831E+00
             -0.330680312265786E+00
             -0.295082566409904E+00
              0.110390427745662E+00
             -0.267665026545743E-01
             -0.353083672796427E+00
              0.228864884021694E+00
             -0.199562605715153E+00
              0.448410037144423E+00
             -0.737131488771153E+00
              0.534375052848803E+00
             -0.992235328946622E-01
             -0.394935777034339E+00
             -0.236232141012825E+00
             -0.258121673345504E-01
              0.418371869511328E+00
             -0.583677334023639E+00
             -0.105354828409003E+00
             -0.136144076484907E+00
              0.341176351065836E+00
              0.669706103725632E+00
             -0.854679013007005E+00
              0.773507195674080E+00
              0.314776248780530E+00
             -0.646380160466039E+00
             -0.262114836403159E+00
              0.677292697734796E+00
              0.478572558816127E+00
             -0.188295690359544E+00
             -0.648209868970575E-01
              0.175064918531335E+00
              0.669489929826594E+00
             -0.513640198826934E+00
              0.110679805615980E+00
             -0.614623969902695E-01
              0.223317271100334E+00
             -0.591196721178528E+00
             -0.143175560426020E-01
             -0.221581651734436E+00
              0.411783276925126E+00
              0.317798358872958E+00
             -0.758975881171772E+00
             -0.393792747884044E+00
             -0.175425576434515E+00
             -0.375437748587000E+00
             -0.103961135755546E+00
             -0.150387983789654E+00
              0.398826449464526E+00
              0.373880529139565E+00
             -0.144659055032985E-01
             -0.369580315919215E+00
             -0.732471320553449E+00
              0.442748400289756E+00
             -0.383726560320628E+00
             -0.321385548482239E+00
              0.681156762131235E-01
             -0.314216838291314E+00
             -0.339484290176310E+00
             -0.275911059225895E+00
             -0.449513288910786E+00
             -0.189576199648415E+00
             -0.420997827611681E+00
              0.466390883495956E+00
              0.499031699480695E+00
             -0.100913011326434E+00
             -0.169934435347247E+00
              0.230103089607203E-01
              0.356347034396811E+00
             -0.722700886927069E+00
             -0.206084335848988E+00
              0.422852774230456E+00
              0.605194002317631E+00
             -0.825633522951690E-01
              0.906726654436376E-01
              0.450793860551207E+00
              0.130276105537065E+00
              0.326164982838206E-01
             -0.316011540904356E+00
              0.109879373803402E+00
             -0.269385604503883E+00
             -0.706272643676420E-01
             -0.181205896538517E+00
             -0.114703426518737E+00
              0.201542760234815E+00
              0.677496169927987E+00
             -0.671949651433568E-01
              0.658029258906168E-02
             -0.784428520817744E+00
             -0.160695178243553E+00
             -0.297089428312435E+00
             -0.518577234299267E-02
             -0.402136734995202E+00
              0.774870264270601E+00
              0.745929832985173E+00
              0.165238344963707E+00
             -0.211536632794378E+00
              0.152690546315854E+00
              0.169816495493258E+00
             -0.391511247920918E+00
             -0.771489801643348E-01
              0.177379088205634E+00
              0.940149092497482E-01
              0.420423422187178E+00
              0.324249772258295E+00
             -0.181538909171455E+00
              0.177451785205882E+00
             -0.831322030181487E+00
             -0.196211925387179E-01
              0.768684399782121E+00
              0.165686764608802E+00
             -0.214455021673712E-01
              0.227411376149103E+00
             -0.181170031250223E+00
              0.731857685579467E+00
             -0.184561836528519E+00
              0.649935775991791E+00
              0.328434400323550E+00
             -0.393059122647895E+00
              0.287336386176710E+00
             -0.230799858971495E+00
             -0.569418984841757E+00
             -0.705220488895266E-01
             -0.451687421511441E+00
             -0.448096486046342E+00
             -0.256815781445008E-02
              0.323185931582652E+00
             -0.124051284749980E+00
             -0.262203223562179E+00
              0.621098936113209E-01
             -0.548174456419571E+00
             -0.247261545901741E-01
             -0.742400249727677E+00
              0.446994231779943E+00
             -0.403545749168643E-01
             -0.412692276457652E+00
             -0.139670380935340E+00
              0.135615859132786E+00
             -0.326348063980884E+00
             -0.369193615129786E+00
              0.771912546199443E+00
             -0.238751196353586E+00
             -0.320081853667427E+00
              0.278245503735290E+00
             -0.195173850653413E+00
              0.478689727144430E+00
             -0.235305301406852E-01
              0.105222193418422E-01
              0.931890501728821E+00
             -0.688747102591636E-01
             -0.332399802342319E+00
             -0.418061931643038E+00
             -0.439679735651542E+00
             -0.318613016498757E+00
              0.244171920072284E+00
              0.274517344540389E+00
              0.246074013829216E+00
              0.624243610157525E+00
              0.432697929010473E-01
              0.200593127322779E+00
             -0.490055027278346E+00
              0.104525708800267E-01
             -0.127764098075247E+00
             -0.237851869328588E+00
             -0.608625904756641E-01
              0.277715565558078E+00
              0.321938177454832E+00
             -0.278112936335028E-01
              0.109941633953996E+00
              0.232019285370209E+00
              0.290273918969788E+00
             -0.187263513406851E+00
             -0.806659579343663E-01
              0.364086042991629E-02
             -0.228525501069782E+00
             -0.313999027091496E-01
             -0.354647927465817E+00
              0.667234580876275E+00
              0.513480696135865E+00
             -0.157060866955995E+00
              0.148510016189885E+00
             -0.490298279685396E-01
             -0.282161403766771E+00
              0.321483737470075E+00
             -0.786527548277345E-01
              0.299861922316912E+00
             -0.396413292615256E+00
              0.141678459001936E+00
             -0.632978809347371E-01
             -0.448141406802592E+00
             -0.201817106077986E+00
              0.190562224092429E+00
             -0.849050247164132E+00
              0.313997475682303E+00
              0.386832685775221E+00
             -0.890782831614967E-01
             -0.548870783950777E-01
             -0.259622690414234E-01
              0.224834810487410E+00
             -0.281576141496725E+00
              0.260400962019287E+00
              0.276722366443603E+00
             -0.757102980393094E+00
             -0.301062467641261E+00
              0.205472161221494E+00
             -0.110213188362780E+00
              0.426864893124396E+00
             -0.528184325463786E+00
             -0.896589948610469E-01
             -0.323731715432867E+00
             -0.111425546425561E+01
              0.673107250712337E+00
             -0.507241612698536E+00
             -0.575850032327495E+00
              0.512165364606363E-01
              0.109993103558928E+01
              0.621218609931578E-01
             -0.295249364279819E+00
             -0.894256337531552E-02
             -0.362103816990818E-01
             -0.722664069454296E+00
             -0.465248237927672E+00
              0.737895824112506E+00
             -0.108056193760749E+00
             -0.292334053133769E+00
              0.410654160222487E+00
             -0.276792227872003E+00
              0.278570487839012E+00
              0.399792669391264E+00
             -0.441712529991450E+00
             -0.244389737380348E+00
             -0.259977600644421E+00
             -0.154135616019133E+00
             -0.175964925982817E+00
             -0.174872782317541E+00
              0.165762490778099E+00
             -0.298987952568676E+00
              0.233478300946359E+00
              0.453836583532618E+00
             -0.410699546794424E-01
             -0.175012014442233E+00
              0.134255846817915E+00
              0.454673780310477E+00
              0.469061535011033E+00
              0.982282803302204E-01
             -0.100754828525749E+00
             -0.104261390991479E+00
             -0.457752662486839E+00
              0.349736594429468E+00
             -0.215718226603115E+00
              0.190918317362782E+00
             -0.107314180882784E+00
              0.217276227773457E+00
              0.141712635512754E+00
             -0.706373466174622E+00
             -0.215872555879467E+00
             -0.661506112141554E+00
             -0.345973512553005E+00
              0.350029327431081E-01
             -0.163543982562748E+00
              0.298929394838816E+00
             -0.234892089730359E+00
              0.254755583630200E-01
              0.565067965253219E-01
              0.592388945012585E+00
              0.306094055195055E+00
             -0.289048829382332E+00
             -0.249987252388819E-01
              0.135598403844936E+00
              0.302396180854061E+00
             -0.192912661448030E-02
              0.488415553016644E+00
              0.240135875981288E+00
              0.768942696664332E+00
              0.329554460185777E-01
              0.523519555335085E+00
             -0.230043238722193E+00
             -0.330038847853700E+00
              0.208040262563403E-01
              0.969449184616060E-01
              0.187420187181221E+00
             -0.183321840892797E+00
             -0.908439546596876E-01
              0.189875755017105E+00
             -0.403607339396514E+00
             -0.509862845010086E+00
              0.674401352393684E+00
             -0.500415579521878E-01
             -0.313533169509320E+00
             -0.511892725619844E-01
             -0.128896124578097E+00
              0.383238362298647E+00
              0.307981220869745E+00
             -0.165338620073904E+00
             -0.123462274510207E-01
             -0.216277404129410E+00
             -0.310873903558366E+00
             -0.196095278264365E+00
             -0.832024501621039E+00
              0.112151538591725E-01
             -0.546249689381345E+00
             -0.502658796709254E+00
             -0.316374605312518E+00
              0.193657210297361E+00
             -0.322819940370469E+00
              0.206118970255895E+00
             -0.557897905942921E+00
              0.301199695138221E-02
             -0.357796974920177E+00
              0.562494234747872E-01
              0.624191910372739E-01
              0.304187072596280E+00
             -0.175040633146719E+00
             -0.165255247031403E+00
              0.275418098147468E+00
              0.505378627597259E+00
              0.271278915743259E+00
              0.982256823938252E-01
             -0.632879890938155E+00
             -0.140711364253550E+00
             -0.231712840427190E+00
             -0.522576135202740E+00
              0.371759879933242E+00
             -0.291990288635333E+00
             -0.621283613171455E-01
             -0.242757678545441E+00
             -0.840710224827267E+00
              0.481669430298274E+00
             -0.168928242069799E+00
              0.326290488585012E+00
             -0.631801700124265E+00
              0.555990270740752E+00
              0.483955198144201E-01
             -0.211105112059070E+00
              0.903473089125626E-01
             -0.166235795615430E+00
             -0.525507796266597E+00
              0.151846244448098E+00
              0.344607894402772E+00
             -0.153945132481095E-01
             -0.285103921320225E+00
             -0.133636028714453E+00
              0.182258135708690E+00
              0.317624531947366E+00
              0.521724013376047E+00
              0.190661872860770E+00
             -0.194284204134624E+00
              0.855873755445605E+00
              0.167235441043740E+00
              0.405958995160033E+00
             -0.131879176973145E+00
              0.255138312472257E+00
              0.209087029754859E+00
             -0.522602108672469E+00
             -0.190397121916665E+00
             -0.340092771072225E+00
             -0.360700702681953E+00
             -0.962260453958406E-01
             -0.716378095593049E-01
             -0.404086506356497E+00
             -0.940547733728420E+00
             -0.221649373881475E+00
              0.120782134487252E+00
              0.473075311601967E-01
              0.130689363254259E+00
              0.332156249797154E+00
              0.907537544225008E-01
              0.256989158495627E+00
             -0.378296082627623E+00
              0.367506283446035E+00
             -0.327870467914704E+00
             -0.561470884226450E+00
              0.174802987266683E+00
             -0.353137065137946E+00
             -0.341026219510074E+00
             -0.134737918231006E+01
             -0.561964160397170E-01
              0.716801143292721E+00
              0.333992471725604E+00
             -0.880871477043548E-01
             -0.950379426417416E-01
              0.377114780786556E+00
              0.540557794551725E+00
             -0.325568522273941E+00
             -0.107084866779375E+00
             -0.311754982969750E+00
             -0.281187198613229E+00
             -0.244164712651615E+00
              0.938123581490392E-01
              0.584203927183851E+00
             -0.560591837206970E+00
             -0.461584000445882E+00
              0.278822504532021E-01
             -0.135343756452849E+00
             -0.155265790578562E+00
             -0.748765237873943E+00
              0.535245585250496E+00
              0.162761487924516E+00
              0.744751073644497E-01
              0.436490535822898E+00
             -0.274601934664414E+00
              0.290030127824482E+00
              0.242165511012928E+00
              0.177646901209085E-01
             -0.818205326414124E-01
              0.668685436202911E-01
             -0.132696127466459E+00
              0.444633965769770E+00
             -0.333275437067848E+00
              0.390310805494642E+00
              0.839789352626665E-01
              0.155754630002495E+00
              0.162112756749210E+00
             -0.679935836245540E+00
              0.929277914016153E-01
             -0.569922356474188E+00
             -0.406504221326497E+00
             -0.406874256628858E+00
             -0.454776578276409E+00
              0.257627888635348E-02
              0.165349500572805E+00
              0.418613356112704E+00
              0.560414306439901E-01
              0.128423789559425E+00
             -0.585633420151749E+00
             -0.245694839672540E+00
              0.268361901704470E+00
             -0.409493194327048E-01
             -0.329891973388854E-01
             -0.792268495804995E-01
              0.301143004208651E+00
             -0.769318649046143E+00
              0.116460087597161E+00
              0.170604704733541E+00
              0.322912111797143E+00
              0.315477693111773E+00
             -0.479233175686312E+00
              0.140791362693294E+00
              0.639798457140504E-01
              0.731728605335977E-01
              0.481080849777826E-01
             -0.172212392736282E+00
             -0.380110084694349E+00
              0.150192955300559E+00
              0.481520598939259E+00
             -0.258378126791570E-02
              0.117167646441822E+00
              0.927589834664730E-01
             -0.267203902662871E+00
             -0.281961865052773E+00
             -0.104116660755396E+01
             -0.328762590831672E+00
             -0.512754764409266E+00
             -0.561700746491969E-01
             -0.585848828372545E+00
              0.640596216099827E+00
             -0.289335084779320E+00
             -0.465097345164577E+00
             -0.132546522917527E+01
              0.567264835831892E+00
              0.129332723827868E+00
              0.865771505101736E-01
             -0.509316689646741E+00
              0.297787640640754E-01
             -0.141843395762038E+00
             -0.260692274017403E+00
              0.633481401828995E-01
              0.272720367552737E+00
              0.433837014282464E-01
             -0.177459500921636E+00
              0.377779601831545E-01
              0.109225675342532E-01
              0.766573246800828E-01
             -0.578377737671688E+00
              0.627353764097630E+00
             -0.348756174677768E+00
             -0.222710064736959E+00
             -0.451353159480027E+00
             -0.938402882634084E+00
              0.324616492459116E-01
             -0.478983747704956E+00
             -0.152628247683470E+00
              0.256258748152904E+00
             -0.227242452403994E+00
             -0.103600992123388E+00
             -0.114765024267444E+00
             -0.168394809023088E+00
              0.306938202067334E-01
              0.444308661351247E+00
             -0.428524044963378E+00
              0.901093037067907E+00
             -0.211891038515139E+00
              0.268577102290226E+00
             -0.163379528153733E+00
              0.103266028294067E+00
             -0.101707806300245E+00
              0.363447417815581E+00
              0.536634567115050E+00
              0.145461536209915E+00
              0.375186984628608E+00
             -0.233656462115942E+00
             -0.654155947331772E-01
             -0.211592593267523E+00
              0.533512956302442E+00
              0.465981584047854E+00
              0.337575714497013E+00
             -0.111340391115407E+00
             -0.209041939450359E+00
              0.195621797795645E+00
             -0.244209080861803E+00
             -0.126465574759496E+00
             -0.457838704773822E-01
             -0.317391564462488E+00
              0.408787563124207E+00
             -0.971812190242729E-01
              0.297442752432929E+00
              0.196475142133631E+00
              0.123782315219338E+00
             -0.287113000299958E+00
              0.208505255766494E+00
             -0.108303256445424E+00
             -0.622762151657872E-01
             -0.346332221335066E-02
             -0.408063024910348E+00
              0.653802605932033E+00
             -0.224788298843907E+00
              0.187122827232762E-01
              0.220028557439266E+00
              0.180598349872403E+00
              0.657701563035168E+00
             -0.196210802510271E+00
              0.638078701648470E+00
              0.566611944748893E+00
             -0.793819971294175E+00
              0.538901774418145E-01
             -0.148817455757699E+00
              0.957778636233808E-01
              0.349557546069814E-01
              0.179064881351758E+00
              0.547705278567653E+00
              0.845018812260272E+00
             -0.615677192412687E+00
              0.644613355598387E+00
             -0.865105818813828E+00
             -0.733613715404885E+00
             -0.130974674267651E+00
              0.143602074099340E-01
              0.683414149466381E+00
              0.264730615846868E+00
             -0.100304233660797E+00
             -0.701139863510525E+00
              0.559503964857385E+00
             -0.345017873718473E+00
              0.196825952870565E-01
             -0.388917154640405E-01
              0.110676814278874E+01
             -0.179163446591856E+00
             -0.891763351230110E+00
              0.255451439224217E+00
             -0.137023724815412E+01
              0.109827639205853E+00
             -0.328568769253164E+00
             -0.144702215849420E+00
             -0.210783124314179E+00
             -0.498235004082539E+00
              0.301158987181962E+00
             -0.302265595088844E+00
             -0.124740040179333E+00
             -0.637626704185942E+00
             -0.302587913543055E-01
             -0.468867353742044E+00
             -0.648703752666417E+00
             -0.884807838785046E+00
              0.665165890483945E-01
             -0.313834214606326E+00
              0.911717262735348E-01
             -0.108345526276825E+00
             -0.710189419660594E+00
             -0.545454400502582E+00
             -0.491791199219919E+00
             -0.497124620554895E+00
              0.436902075147012E+00
              0.433592983917830E-01
             -0.415739584520351E+00
             -0.213842640719719E+00
             -0.243304531905870E+00
              0.356829715482655E+00
             -0.256587392987621E+00
             -0.251037650337740E-01
             -0.271305762701751E+00
             -0.337912120903793E+00
             -0.356971885228361E+00
              0.342628772983822E+00
             -0.100239220294155E+00
             -0.780464409699085E+00
              0.660292396712895E+00
              0.370683244533480E+00
              0.217666635028166E-01
             -0.694571776814376E+00
             -0.635763881291403E+00
              0.446643000497606E-01
              0.816586286189347E-02
             -0.293632591418193E+00
             -0.372962851459291E+00
              0.249388072198235E+00
             -0.350069992318778E-01
              0.225906904119768E+00
              0.400567702206997E+00
              0.305153436966215E+00
              0.193196170411018E+00
              0.176215770969261E+00
             -0.197193462657731E+00
             -0.128397354894346E+00
             -0.150172057470838E+00
             -0.323448733808744E+00
             -0.404158307779826E+00
             -0.505413887166220E+00
             -0.295376309110062E+00
             -0.109488384515854E+00
             -0.623728542080773E+00
             -0.152486871330392E+00
              0.304617936596116E+00
             -0.733060156557150E+00
              0.315111285309523E+00
              0.261668854334879E+00
             -0.614265936906468E+00
             -0.469483444864319E+00
             -0.208527114973030E+00
              0.910768681957439E-01
             -0.347538075190659E+00
              0.638930729736376E+00
              0.563429855809720E+00
             -0.656161906976704E+00
              0.338956625910468E+00
              0.311122849255840E+00
              0.879508267603901E-01
              0.145924833794967E+00
             -0.360889326181725E+00
             -0.131859020177421E+00
              0.543529236187990E-01
              0.178487639527890E+00
              0.344349920798143E+00
             -0.469765403978996E+00
             -0.101894335590487E+00
              0.127475968203813E+00
              0.934955273719342E-01
             -0.313338724597658E+00
              0.154699888814615E+00
             -0.210786964732734E+00
             -0.154193892854377E+00
             -0.137293318671952E-01
             -0.522807178692593E+00
             -0.111244909336112E-01
             -0.590098379441892E-01
             -0.133280583809138E+00
              0.152154686317150E+00
             -0.444490193641380E+00
              0.497750089999262E+00
             -0.180728747366525E+00
             -0.114705082439934E+01
             -0.727233496673140E+00
              0.289488359589741E+00
             -0.361407713223569E+00
             -0.192798523065529E+00
             -0.194164477054951E+00
             -0.160655376134981E+00
             -0.889502278681823E+00
             -0.799851139559493E-03
             -0.525471997912685E+00
             -0.278733484857920E+00
              0.171317972176928E+00
              0.683772516272994E+00
              0.450882547102980E-01
              0.322604746967575E-01
              0.515118417007948E+00
             -0.491895657233319E+00
              0.222600941185155E+00
              0.455113241004734E-01
             -0.468719809728388E+00
             -0.275028050329810E+00
              0.161165235525224E+00
              0.283157842882211E-01
              0.147940674174054E+00
              0.120785375052052E+00
             -0.195691677990591E+00
             -0.286154431004711E+00
             -0.413968254423877E+00
              0.419717008418845E+00
             -0.587043680596211E+00
             -0.427283350923186E+00
              0.132533023810538E+00
             -0.715051212606560E+00
              0.199975475107423E+00
              0.503852955335973E+00
             -0.109992121133428E+00
              0.179376859791001E+00
             -0.297782699725504E+00
             -0.187191533456184E+00
              0.852993923775722E-01
              0.303104180393050E+00
             -0.303423893066691E+00
              0.176232231028541E+00
             -0.120308079712821E+00
              0.736403274649113E-01
              0.149339867857812E+00
              0.808711512252380E-01
             -0.109547031259197E+00
             -0.530671217240908E-02
              0.882567813318875E-01
              0.231079711553399E+00
             -0.595258352038280E+00
             -0.259140221346268E-01
              0.444396815267748E+00
             -0.740123532679264E+00
              0.279955283232834E+00
             -0.955473111318034E+00
             -0.101049333533665E+00
             -0.117890848083240E+00
             -0.138233044345109E-01
             -0.107485984249334E+00
             -0.241500108940384E+00
             -0.925876045542964E-01
              0.949838960764131E-01
             -0.212236847883352E+00
              0.872489191325636E-01
              0.774680699263063E+00
             -0.468745146313325E+00
             -0.211212340866660E+00
              0.359006701066669E+00
              0.176538451979822E+00
              0.360497632024029E+00
              0.172183916350294E+00
              0.134121244815738E+00
             -0.115636913766181E+00
             -0.419441689502871E+00
             -0.393891712286884E+00
             -0.314294918146297E+00
              0.642248419359606E-01
             -0.361253296470744E+00
             -0.921992537185426E-01
              0.493479513029673E-01
              0.207931687130713E+00
             -0.490195651717894E-01
              0.503334696587628E+00
             -0.570822820832526E+00
             -0.413031994772250E-02
             -0.684809446017667E-01
              0.271831177156044E+00
             -0.356469734084541E+00
             -0.237374820629809E+00
              0.972293398156054E-01
              0.380367978389690E+00
              0.645171795722717E+00
              0.258229207118755E+00
              0.396959763415824E+00
             -0.200557172948254E+00
              0.534684869952799E+00
              0.534256193240270E+00
             -0.109502794313494E-01
              0.242265521034847E+00
              0.317620959188321E+00
             -0.164425276311992E+00
              0.140954628535349E+00
              0.561030572117173E+00
             -0.173628113438370E+00
             -0.551715054605229E-01
             -0.535310256951689E+00
              0.181761224611867E+00
             -0.137664932343508E+00
              0.185944968043874E+00
              0.397656785295974E-02
             -0.327045614480480E+00
              0.390021363788259E+00
              0.332721578918679E+00
             -0.269493573870112E+00
              0.146662530311091E+00
             -0.506545538015515E+00
             -0.459186471597318E+00
              0.207997084075298E+00
             -0.574454216203609E+00
             -0.300972173921473E+00
             -0.601721238635555E-03
              0.736038358083807E+00
             -0.177171361179426E+00
             -0.960644487674329E-01
             -0.180490630863416E+00
              0.940115281430181E+00
              0.167675332320500E+00
             -0.351548651441003E+00
              0.599705852969832E+00
              0.530419738126069E+00
              0.289284310864323E+00
              0.686763105556556E+00
              0.742108197773388E+00
             -0.257722590934640E-01
             -0.241391651385201E+00
             -0.216693363909869E+00
              0.233325480954012E+00
              0.321260453970029E+00
             -0.659750457105373E-01
             -0.212797795087183E+00
             -0.482835796859326E+00
             -0.163189327882582E+00
             -0.394218673686032E+00
              0.283832313089256E+00
              0.152587366642788E+00
              0.509798544376639E+00
              0.115583235722322E+00
             -0.183546046670947E+00
             -0.675831023165108E-01
              0.335610988659717E+00
              0.787513750701567E-01
              0.530526538102692E+00
              0.468078910663305E+00
             -0.692341420590032E-01
             -0.807530863518590E-01
             -0.863532536203421E+00
              0.411196245066651E+00
              0.581697068972264E-02
              0.486166752095476E+00
             -0.224651783774285E+00
             -0.576437701481578E+00
              0.161868405630781E+00
              0.622885205250321E+00
             -0.223181100195780E+00
              0.564411159765155E+00
             -0.613772104158457E+00
             -0.216989278689387E+00
             -0.723081954992821E+00
              0.130325815095485E+00
              0.245835700805630E-01
              0.828123161162639E-01
             -0.529362706076778E+00
              0.786268314558258E+00
              0.464812497717269E+00
              0.455437732340975E-01
             -0.466954734844479E+00
              0.176273108791455E+00
             -0.147651728547944E+00
             -0.133048829111619E+00
             -0.235045260586842E+00
              0.137937528651719E+00
             -0.152715946429583E+00
             -0.154774643386984E+00
              0.208044910624912E+00
              0.190590478287982E+00
             -0.763701427977295E+00
              0.159780103134102E+00
              0.553492872817355E+00
              0.354165311427651E+00
             -0.109041123819750E+00
             -0.188213122529692E-01
             -0.316932442023794E+00
              0.470350401680454E+00
              0.680437400090641E-01
             -0.251238139190324E-01
             -0.483040490163464E-01
              0.919892740077986E+00
             -0.753239350792674E-01
              0.189778693947449E+00
              0.630187058361153E+00
              0.818498140634661E+00
              0.505751981263002E+00
              0.330812821099686E+00
             -0.540835680040979E+00
             -0.401209157914590E+00
              0.309536082209148E+00
              0.443832367642720E-01
              0.253432959738290E+00
              0.984833020092704E-01
              0.558644419171433E+00
             -0.676915533902732E+00
             -0.408488679399442E+00
             -0.108234112918225E+00
             -0.735608735989415E+00
              0.155724828577202E+00
              0.396525542697869E+00
             -0.121377066437458E-01
             -0.170587807355159E+00
              0.176494603918944E+00
              0.113622653402723E+01
              0.284808106553230E+00
              0.151042502753037E+00
             -0.396994175082802E+00
             -0.482092784958704E+00
             -0.113765335918918E+00
              0.243549147278076E+00
             -0.515720562500945E-01
              0.232409146931861E+00
              0.298675559934078E+00
             -0.520321865800822E+00
              0.234451696092405E+00
              0.260684708934661E+00
              0.478439280702915E+00
             -0.889033253046994E-01
              0.490310773939893E-01
             -0.617358282865992E-01
             -0.376868157297707E+00
             -0.624092540388981E+00
              0.632372658104788E+00
             -0.845723831240377E-01
             -0.439142406160123E+00
              0.718155321972953E-01
             -0.275017677710048E+00
              0.722017365280323E+00
             -0.194167084360845E+00
             -0.319969932486969E+00
              0.323059564846718E+00
             -0.129692072977606E+00
              0.399991593094760E+00
              0.221304211561408E-01
              0.774013069429125E+00
              0.436266129011419E+00
              0.119390487674686E+00
             -0.337687916395553E+00
              0.248957129293052E+00
             -0.454114103336759E+00
             -0.240184965339268E-01
              0.555731604777917E+00
             -0.206210098445890E+00
             -0.364392465752277E+00
             -0.189669785732971E+00
              0.436885484562126E+00
              0.977628420941521E-01
             -0.689266576273777E+00
              0.300521752924868E+00
              0.475300434054771E-01
              0.982433552216300E-01
             -0.411748286894116E+00
              0.102234936916592E+00
              0.294030229502187E+00
              0.390050813297152E+00
              0.550540899443308E+00
              0.313864945393038E+00
              0.669392095160752E-01
             -0.476453326062190E+00
             -0.347549093692167E+00
             -0.536938726515841E+00
             -0.123253054369394E+00
              0.300219876653572E+00
             -0.782759304359937E-02
              0.439244032348949E+00
             -0.267390805725501E+00
              0.134835247586625E+00
             -0.216404706159461E+00
             -0.226651552886265E+00
              0.504845361793284E+00
              0.488791647805873E-01
              0.524240643177930E+00
              0.550464777442135E-01
              0.156542280738785E+00
             -0.130519701771921E+00
              0.507165282787295E+00
             -0.149204447215318E+00
              0.334633298420281E-02
             -0.661133525615782E+00
             -0.572518481150268E-01
              0.592866856306904E+00
              0.544782221057416E+00
              0.203920353296490E+00
             -0.125276991510466E+00
              0.442500081997224E-01
             -0.209185286497286E+00
             -0.181978690903936E+00
              0.756858293956035E+00
              0.729198988610502E-01
             -0.247062390588488E+00
             -0.890502367123963E+00
             -0.344169694570654E+00
             -0.325668292774809E+00
             -0.502687360660178E+00
             -0.508666692562865E+00
             -0.602342352095199E+00
             -0.377022614502097E+00
             -0.222284756581161E+00
             -0.401256754653079E+00
              0.368009992773146E+00
             -0.140721995550820E+00
             -0.703657685826036E+00
              0.359263107124039E+00
             -0.293454773787902E+00
             -0.665294832214244E+00
              0.859943181177508E+00
             -0.211424957827602E+00
              0.123717550704098E+00
              0.323991708100434E+00
              0.133420226665067E+00
              0.217689796100394E+00
              0.144816608596663E-01
              0.117549398073713E-01
             -0.112460041572194E+00
             -0.626250449580789E+00
              0.931905678375270E-01
             -0.100840169637905E+01
              0.621729812251149E+00
             -0.328804337590012E+00
             -0.154938805168275E+00
             -0.175703055285584E+00
              0.207843071558067E+00
             -0.132852447283526E+00
              0.236349876203145E+00
             -0.491023530052605E+00
              0.314836547782080E+00
              0.373313972274109E+00
              0.613477488468226E-01
              0.815442278619882E-01
              0.185021127059759E+00
              0.820372269998475E-01
              0.254309673103128E+00
             -0.376077316786496E-01
             -0.639070263253076E+00
              0.839729573699746E-01
             -0.314134428373803E+00
             -0.242445738395243E-01
              0.481487017777181E+00
             -0.681237119780901E+00
              0.246881672542152E-01
              0.379561240792863E-01
              0.811447500411964E-01
              0.252389127258135E+00
             -0.105681479285608E+00
              0.706477421701886E+00
              0.296946023540131E+00
             -0.118186567756955E+00
             -0.689465026341713E-01
              0.606478751122432E-01
              0.667629499287817E+00
             -0.404701610616564E+00
             -0.856895698316179E+00
              0.254653501528581E+00
             -0.609905093792649E-01
             -0.140613197241348E+00
              0.164835912092032E+00
              0.633128706417864E+00
              0.342407566611678E+00
             -0.150344607784182E+00
             -0.457853113351315E+00
             -0.113787782918194E+00
              0.225636859199085E+00
             -0.158611484292826E+00
             -0.651745014726826E+00
             -0.882157945416955E-01
             -0.830769770799420E+00
             -0.434885335977579E+00
              0.747296757040690E+00
             -0.449363553041481E+00
             -0.611384770711985E+00
             -0.460581513847639E+00
             -0.345633806118917E+00
              0.300293885520394E+00
              0.730430785055896E+00
             -0.925552843410746E-01
              0.218560668507515E+00
             -0.179227016128859E+00
             -0.567384407850040E+00
              0.449541382185170E+00
             -0.414188688520437E+00
              0.206381853457604E+00
              0.230980110148459E+00
             -0.148055526145943E+00
              0.308156964517242E+00
              0.318728338069166E+00
              0.104161748700392E+01
             -0.874621960351831E-01
             -0.487052983876134E+00
             -0.569725607522867E+00
             -0.164883388913979E+00
             -0.385189066049073E+00
              0.780960978509765E+00
             -0.389443305289049E+00
              0.816079341533486E-01
              0.131788841311300E-01
             -0.156288033797743E+00
             -0.735660732212412E+00
             -0.565287335138669E-01
              0.859847546066764E+00
              0.197980921650670E+00
              0.633897015767166E-01
             -0.502619666912059E+00
             -0.450051097323584E+00
             -0.159989488310884E+00
              0.374322745103616E+00
             -0.235890444174381E+00
              0.845424293801537E+00
             -0.411552022464494E+00
              0.167405696337106E+00
             -0.101779944724489E+00
             -0.509564310380183E+00
              0.577885629876800E-01
             -0.482117794628168E+00
             -0.627814611389779E+00
              0.967687367789267E-01
              0.252682920131098E-02
              0.412340162835326E+00
              0.237648707542231E+00
             -0.300435092881174E+00
              0.180113404079100E+00
             -0.759031758451482E+00
             -0.392520910253235E+00
              0.793664134721652E+00
              0.112987203254407E-01
             -0.329851639032173E-01
             -0.199692634815792E+00
              0.248764705707050E-02
             -0.112562011611854E+00
              0.798708888510974E+00
              0.352711905908848E+00
             -0.668084329180059E-01
              0.140527672072359E-01
             -0.324052823395988E+00
             -0.962086714225232E-01
             -0.520518226018556E+00
              0.453439609552594E+00
              0.611721173858195E-01
              0.580394859869351E-01
              0.165350162177810E+00
             -0.134356069937051E+00
             -0.200794148236404E+00
              0.869475085169843E-01
             -0.950070530589492E+00
             -0.745225564038621E-01
             -0.826185984402819E-01
             -0.465139656575071E-01
              0.395502307975026E+00
              0.545657145926964E+00
              0.153883016733519E+00
             -0.785723662057463E+00
              0.536697951275613E+00
             -0.208885226397786E+00
             -0.307427604678047E+00
             -0.735152366620037E+00
             -0.228784558094725E+00
              0.541482745018401E+00
              0.298445752270076E+00
              0.165981469312996E+00
              0.300720001155219E+00
             -0.471781057842939E+00
             -0.415514095260647E+00
              0.546421946793402E+00
              0.355660468550020E+00
              0.386272223248378E+00
              0.873308569754607E-01
              0.942581721667750E-01
              0.444549650284032E+00
              0.837169639631787E+00
             -0.141155690716389E+00
              0.339979216875816E+00
             -0.265731380755440E+00
             -0.377965427900505E+00
             -0.291053559248435E+00
             -0.287352615033944E+00
             -0.119397586927986E+00
             -0.395551004456962E+00
             -0.157685789339637E+00
             -0.107471454241186E+01
              0.268182723582345E+00
              0.254380351788101E+00
             -0.260874215242367E-01
             -0.301862729297759E+00
             -0.152022962766830E+00
             -0.471631934718413E+00
              0.480507762076545E-01
              0.669204908200348E+00
             -0.158916293347655E+00
             -0.165844686372150E+00
              0.144294816674337E+00
             -0.438667143258162E+00
              0.729781175763497E+00
              0.136289750844329E+00
              0.367831079881151E-01
              0.442357035409293E+00
             -0.610905135970161E-01
              0.500037441395893E+00
              0.175310011193376E+00
             -0.119424856756507E-01
              0.121847786114869E+00
             -0.105336866637964E+00
              0.567154410558356E+00
              0.624059034422286E-01
              0.193762771919014E+00
             -0.789709095135871E-01
              0.914949888630661E-01
             -0.804215991277411E+00
             -0.298251592696299E+00
             -0.423422094159780E+00
              0.427058402792492E+00
             -0.309201382283801E+00
             -0.460472818160199E+00
              0.502815402105151E+00
             -0.127068138111754E+00
              0.349355984007990E+00
             -0.750266851526896E+00
              0.149463052797054E+00
              0.248455312858743E-01
              0.538407861459227E-01
             -0.117586434923677E+00
             -0.482342035096606E-01
              0.437383882542734E+00
              0.326935710518121E-01
             -0.452376611887862E+00
             -0.197704323286301E+00
              0.143626379493047E+00
             -0.984402407526719E+00
             -0.730121857161007E+00
              0.349317427233742E-02
              0.143101154594298E+00
             -0.453620987763842E+00
              0.919816733142609E-02
              0.868658411688795E+00
              0.236524619656692E+00
             -0.460494327456133E+00
              0.579059226799026E-01
             -0.886099539376548E-01
              0.124780697471787E+00
             -0.307802068343456E+00
              0.200241250556616E+00
              0.188634224893500E+00
             -0.723326957917347E-01
              0.953676362341740E+00
             -0.275549938788195E-01
             -0.260786783060610E+00
              0.281928569828977E+00
              0.370674346307889E+00
             -0.275658236617563E+00
             -0.380681688420675E-02
              0.843423324139628E+00
             -0.174867621501891E-01
              0.428167630956382E+00
              0.149858406214476E+00
             -0.519502579333340E-01
             -0.112357512408803E+00
              0.387663741544565E+00
             -0.508162677245922E+00
             -0.222606541812720E-01
             -0.181340833118826E+00
             -0.345813462574399E+00
              0.875242196332839E-01
              0.215562994411428E+00
             -0.307997437562912E-01
             -0.141796996045360E-01
             -0.351677984417673E+00
              0.114318633304798E+00
             -0.176232827755793E-01
             -0.179586961873120E+00
             -0.171964260077943E+00
              0.145354034690666E+00
              0.486094356507927E-03
             -0.335303095859435E+00
             -0.921275007152664E+00
              0.441158802913136E-01
              0.118675438664344E+00
             -0.420042129911628E+00
             -0.220891263800190E+00
              0.700616651646528E+00
              0.119526644452555E+00
              0.377185869991190E+00
              0.976981829176065E-01
              0.340730516795717E+00
              0.175250138455829E-01
             -0.332020115274517E+00
             -0.115115715189427E+00
              0.415731709680436E-01
              0.264429951731219E+00
              0.626739033101583E+00
              0.420974952551258E+00
              0.312300827449055E-01
              0.880070915811759E-01
              0.518819420942593E+00
              0.241481435025278E+00
             -0.584480090614500E+00
             -0.244655119329860E+00
              0.963121627037089E-01
              0.894457435226046E-01
              0.203599900185305E+00
             -0.434986416175470E+00
              0.278453724061375E-01
              0.357514785410816E+00
              0.407237201282266E+00
             -0.351520849390816E+00
              0.361938408007103E-01
             -0.142603577812812E-01
             -0.190541208142516E+00
             -0.192621734699429E+00
             -0.814241124529165E-01
             -0.123928180635826E+00
              0.108963523084300E+00
              0.359128097658936E+00
             -0.274035940463590E+00
              0.694983907383024E+00
              0.275833765259317E+00
              0.226643477083611E+00
              0.328667457041883E+00
              0.198568723327407E+00
              0.303700767667089E+00
              0.473845226500098E+00
             -0.411424891505272E+00
              0.539062101032913E+00
             -0.969427410571983E+00
              0.267512110534512E+00
             -0.884831558305646E+00
              0.677687241763380E+00
              0.676527566228927E+00
             -0.623527517358267E-01
             -0.400779542632336E+00
             -0.371478314119158E+00
             -0.452509227300414E+00
             -0.560530522009808E+00
              0.465364049260526E+00
              0.360221387410088E+00
              0.208360819037036E+00
              0.205431769491091E+00
              0.384261853693648E+00
             -0.356531170726832E+00
             -0.112497811773703E+00
              0.448967195275656E+00
             -0.104570090005490E+00
              0.415800407120635E+00
              0.661170741545345E+00
             -0.259841185973722E-01
             -0.651773307894695E+00
              0.591691359564885E-01
              0.179053497614507E-01
             -0.858237515109797E-01
              0.330302033766807E-01
             -0.551934706954051E+00
             -0.564056784764286E-01
              0.133815034331038E+00
              0.133770920227137E+00
              0.420622533199794E+00
             -0.348824428676214E+00
              0.430900888186042E+00
             -0.316233067978838E+00
              0.234379528288156E+00
              0.381548943334225E+00
 
 BEEF-vdW xc energy contributions
           1 :   -5.72504544361863     
           2 :    4.50626088180980     
           3 :   -2.86831087934482     
           4 :    1.46244052326352     
           5 :  -0.502628535416199     
           6 :  -3.950273542904714E-002
           7 :   0.263746104580159     
           8 :  -0.294759984011357     
           9 :   0.238230496377328     
          10 :  -0.176877452362828     
          11 :   0.142635449038434     
          12 :  -0.135525956197369     
          13 :   0.140718511211146     
          14 :  -0.149843771027008     
          15 :   0.143613616271058     
          16 :  -0.108908641339164     
          17 :   4.551263796765070E-002
          18 :   2.195397774206320E-002
          19 :  -7.115968118569782E-002
          20 :   9.008469426844101E-002
          21 :  -8.775910486427740E-002
          22 :   7.561203316999610E-002
          23 :  -6.536607552194784E-002
          24 :   5.485282249636292E-002
          25 :  -4.160020531073005E-002
          26 :   2.283285371833355E-002
          27 :  -4.680702135267722E-003
          28 :  -1.056364094851681E-002
          29 :   2.257033322301627E-002
          30 :  -3.699010367884892E-002
          31 :  -0.793272268370478     
          32 :  -0.461344984198782     

     Writing output data file ./pwscf.save/
 
     init_run     :     79.05s CPU     81.97s WALL (       1 calls)
     electrons    :    663.64s CPU    706.14s WALL (       1 calls)
     forces       :     38.09s CPU     40.69s WALL (       1 calls)

     Called by init_run:
     wfcinit      :      1.79s CPU      1.81s WALL (       1 calls)
     potinit      :     67.17s CPU     69.56s WALL (       1 calls)
     hinit0       :      8.55s CPU      8.68s WALL (       1 calls)

     Called by electrons:
     c_bands      :    107.40s CPU    108.38s WALL (      13 calls)
     sum_band     :     41.96s CPU     45.96s WALL (      13 calls)
     v_of_rho     :    465.84s CPU    496.64s WALL (      14 calls)
     newd         :     13.70s CPU     17.86s WALL (      14 calls)
     PAW_pot      :      1.43s CPU      1.43s WALL (      14 calls)
     mix_rho      :     94.42s CPU     99.46s WALL (      13 calls)
     vdW_kernel   :     33.85s CPU     33.85s WALL (       1 calls)

     Called by c_bands:
     init_us_2    :      1.65s CPU      1.66s WALL (      56 calls)
     regterg      :    105.05s CPU    106.00s WALL (      26 calls)

     Called by *egterg:
     rdiaghg      :      0.02s CPU      0.02s WALL (     205 calls)
     h_psi        :     95.85s CPU     95.87s WALL (     207 calls)
     s_psi        :      1.14s CPU      1.14s WALL (     207 calls)
     g_psi        :      0.39s CPU      0.39s WALL (     179 calls)

     Called by h_psi:
     h_psi:calbec :      1.24s CPU      1.24s WALL (     207 calls)
     vloc_psi     :     92.87s CPU     92.88s WALL (     207 calls)
     add_vuspsi   :      1.21s CPU      1.22s WALL (     207 calls)

     General routines
     calbec       :      1.47s CPU      1.48s WALL (     241 calls)
     fft          :    304.67s CPU    304.69s WALL (    3726 calls)
     ffts         :     38.13s CPU     38.13s WALL (     482 calls)
     fftw         :     84.71s CPU     84.72s WALL (    1058 calls)
 
     Parallel routines
 
     PWSCF        :  28m 2.04s CPU  30m 4.12s WALL

 
   This run was terminated on:  16:46:50  20Dec2022            

=------------------------------------------------------------------------------=
   JOB DONE.
=------------------------------------------------------------------------------=
