
     Program PWSCF v.6.7MaX starts on 20Dec2022 at 16:17:43 

     This program is part of the open-source Quantum ESPRESSO suite
     for quantum simulation of materials; please cite
         "P. Giannozzi et al., J. Phys.:Condens. Matter 21 395502 (2009);
         "P. Giannozzi et al., J. Phys.:Condens. Matter 29 465901 (2017);
          URL http://www.quantum-espresso.org", 
     in publications or presentations arising from this work. More details at
     http://www.quantum-espresso.org/quote

     Parallel version (MPI), running on     1 processors

     MPI processes distributed on     1 nodes
     Reading input from ch3ch3-gas-ensemble.in
Warning: card &CELL ignored
Warning: card / ignored

     Current dimensions of program PWSCF are:
     Max number of different atomic species (ntypx) = 10
     Max number of k-points (npk) =  40000
     Max angular momentum in pseudopotentials (lmaxx) =  3
     file C.pbe-n-kjpaw_psl.1.0.0.UPF: wavefunction(s)  2S 2P renormalized
     file H.pbe-kjpaw_psl.1.0.0.UPF: wavefunction(s)  1S renormalized

     **************************************************************************
     Initializing libbeef V0.1.2 with the BEEF-vdW functional.
     Citation: Wellendorff et al., PRB 85, 235149 (2012).
     **************************************************************************


     IMPORTANT: XC functional enforced from input :
     Exchange-correlation= BEEF-VDW
                           (   1   4  43  14   2   0   0)
     Any further DFT definition will be discarded
     Please, verify this is what you really want


     gamma-point specific algorithms are used

     Subspace diagonalization in iterative solution of the eigenvalue problem:
     a serial algorithm will be used

 
     G-vector sticks info
     --------------------
     sticks:   dense  smooth     PW     G-vecs:    dense   smooth      PW
     Sum       33521   33521   8379              4563489  4563489  570373
 


     bravais-lattice index     =            0
     lattice parameter (alat)  =      42.3456  a.u.
     unit-cell volume          =   72684.9689 (a.u.)^3
     number of atoms/cell      =            8
     number of atomic types    =            2
     number of electrons       =        14.00
     number of Kohn-Sham states=           11
     kinetic-energy cutoff     =      60.0000  Ry
     charge density cutoff     =     240.0000  Ry
     scf convergence threshold =      1.0E-06
     mixing beta               =       0.7000
     number of iterations used =            8  local-TF  mixing
     Exchange-correlation= BEEF-VDW
                           (   1   4  43  14   2   0   0)

     celldm(1)=  42.345574  celldm(2)=   0.000000  celldm(3)=   0.000000
     celldm(4)=   0.000000  celldm(5)=   0.000000  celldm(6)=   0.000000

     crystal axes: (cart. coord. in units of alat)
               a(1) = (   1.000000   0.000000   0.000000 )  
               a(2) = (   0.000000   0.978823   0.000000 )  
               a(3) = (   0.000000   0.000000   0.977950 )  

     reciprocal axes: (cart. coord. in units 2 pi/alat)
               b(1) = (  1.000000  0.000000  0.000000 )  
               b(2) = (  0.000000  1.021636  0.000000 )  
               b(3) = (  0.000000  0.000000  1.022547 )  


     PseudoPot. # 1 for C  read from file:
     /users/bkreitz1/quantum-espresso/potentials/C.pbe-n-kjpaw_psl.1.0.0.UPF
     MD5 check sum: a169b0ebad56f5ec0d79c4633f80bf22
     Pseudo is Projector augmented-wave + core cor, Zval =  4.0
     Generated using 'atomic' code by A. Dal Corso  v.6.7MaX
     Shape of augmentation charge: PSQ
     Using radial grid of 1073 points,  4 beta functions with: 
                l(1) =   0
                l(2) =   0
                l(3) =   1
                l(4) =   1
     Q(r) pseudized with 0 coefficients 


     PseudoPot. # 2 for H  read from file:
     /users/bkreitz1/quantum-espresso/potentials/H.pbe-kjpaw_psl.1.0.0.UPF
     MD5 check sum: ae98473e6dc62675f0d0baffdab24f65
     Pseudo is Projector augmented-wave, Zval =  1.0
     Generated using 'atomic' code by A. Dal Corso  v.6.7MaX
     Shape of augmentation charge: PSQ
     Using radial grid of  929 points,  2 beta functions with: 
                l(1) =   0
                l(2) =   0
     Q(r) pseudized with 0 coefficients 


     atomic species   valence    mass     pseudopotential
        C              4.00    12.01100     C ( 1.00)
        H              1.00     1.00800     H ( 1.00)

     No symmetry found



   Cartesian axes

     site n.     atom                  positions (alat units)
         1           C   tau(   1) = (   0.4659427   0.4880999   0.4895625  )
         2           C   tau(   2) = (   0.5340717   0.4908851   0.4877067  )
         3           H   tau(   3) = (   0.4483670   0.4603579   0.4535550  )
         4           H   tau(   4) = (   0.4462998   0.5324725   0.4848122  )
         5           H   tau(   5) = (   0.4500263   0.4693948   0.5316623  )
         6           H   tau(   6) = (   0.5536880   0.4463705   0.4908455  )
         7           H   tau(   7) = (   0.5499170   0.5110431   0.4462806  )
         8           H   tau(   8) = (   0.5517138   0.5173746   0.5250832  )

     number of k points=     1  Gaussian smearing, width (Ry)=  0.0050
                       cart. coord. in units 2pi/alat
        k(    1) = (   0.0000000   0.0000000   0.0000000), wk =   2.0000000

     Dense  grid:  2281745 G-vectors     FFT dimensions: ( 216, 216, 216)

     Estimated max dynamical RAM per process >       3.86 GB

     Initial potential from superposition of free atoms

     starting charge   13.99986, renormalised to   14.00000

     negative rho (up, down):  7.323E-03 0.000E+00


     %%%%%%%%%%%%%%%%%%%%%%%%%%%%%%%%%%%%%%%%%%%%%%%%%%%%%%%%%%%%%%%%%%%%%%%%
     %                                                                      %
     % You are using vdW-DF, which was implemented by the Thonhauser group. %
     % Please cite the following two papers that made this development      %
     % possible and the two reviews that describe the various versions:     %
     %                                                                      %
     %   T. Thonhauser et al., PRL 115, 136402 (2015).                      %
     %   T. Thonhauser et al., PRB 76, 125112 (2007).                       %
     %   K. Berland et al., Rep. Prog. Phys. 78, 066501 (2015).             %
     %   D.C. Langreth et al., J. Phys.: Condens. Matter 21, 084203 (2009). %
     %                                                                      %
     %                                                                      %
     % If you are calculating the stress with vdW-DF, please also cite:     %
     %                                                                      %
     %   R. Sabatini et al., J. Phys.: Condens. Matter 24, 424209 (2012).   %
     %                                                                      %
     %%%%%%%%%%%%%%%%%%%%%%%%%%%%%%%%%%%%%%%%%%%%%%%%%%%%%%%%%%%%%%%%%%%%%%%%


     Starting wfcs are   14 randomized atomic wfcs
     Checking if some PAW data can be deallocated... 

     total cpu time spent up to now is       69.3 secs

     Self-consistent Calculation

     iteration #  1     ecut=    60.00 Ry     beta= 0.70
     Davidson diagonalization with overlap
     ethr =  1.00E-02,  avg # of iterations =  5.0

     negative rho (up, down):  5.818E-03 0.000E+00

     total cpu time spent up to now is      107.3 secs

     total energy              =     -45.44280341 Ry
     estimated scf accuracy    <       1.02795872 Ry

     iteration #  2     ecut=    60.00 Ry     beta= 0.70
     Davidson diagonalization with overlap
     ethr =  7.34E-03,  avg # of iterations =  2.0

     negative rho (up, down):  3.413E-03 0.000E+00

     total cpu time spent up to now is      143.5 secs

     total energy              =     -45.36225124 Ry
     estimated scf accuracy    <       0.25233888 Ry

     iteration #  3     ecut=    60.00 Ry     beta= 0.70
     Davidson diagonalization with overlap
     ethr =  1.80E-03,  avg # of iterations =  4.0

     negative rho (up, down):  3.244E-03 0.000E+00

     total cpu time spent up to now is      181.6 secs

     total energy              =     -45.37685366 Ry
     estimated scf accuracy    <       0.04228749 Ry

     iteration #  4     ecut=    60.00 Ry     beta= 0.70
     Davidson diagonalization with overlap
     ethr =  3.02E-04,  avg # of iterations =  5.0

     negative rho (up, down):  3.416E-02 0.000E+00

     total cpu time spent up to now is      221.5 secs

     total energy              =     -45.37262744 Ry
     estimated scf accuracy    <       0.01989690 Ry

     iteration #  5     ecut=    60.00 Ry     beta= 0.70
     Davidson diagonalization with overlap
     ethr =  1.42E-04,  avg # of iterations =  5.0

     negative rho (up, down):  1.399E-01 0.000E+00

     total cpu time spent up to now is      262.4 secs

     total energy              =     -45.37452138 Ry
     estimated scf accuracy    <       0.00871196 Ry

     iteration #  6     ecut=    60.00 Ry     beta= 0.70
     Davidson diagonalization with overlap
     ethr =  6.22E-05,  avg # of iterations =  3.0

     negative rho (up, down):  1.398E-01 0.000E+00

     total cpu time spent up to now is      303.9 secs

     total energy              =     -45.37467818 Ry
     estimated scf accuracy    <       0.00473999 Ry

     iteration #  7     ecut=    60.00 Ry     beta= 0.70
     Davidson diagonalization with overlap
     ethr =  3.39E-05,  avg # of iterations =  2.0

     negative rho (up, down):  1.228E-01 0.000E+00

     total cpu time spent up to now is      341.4 secs

     total energy              =     -45.37301926 Ry
     estimated scf accuracy    <       0.00250108 Ry

     iteration #  8     ecut=    60.00 Ry     beta= 0.70
     Davidson diagonalization with overlap
     ethr =  1.79E-05,  avg # of iterations =  8.0

     negative rho (up, down):  1.086E-01 0.000E+00

     total cpu time spent up to now is      382.6 secs

     total energy              =     -45.37281848 Ry
     estimated scf accuracy    <       0.00226350 Ry

     iteration #  9     ecut=    60.00 Ry     beta= 0.70
     Davidson diagonalization with overlap
     ethr =  1.62E-05,  avg # of iterations =  2.0

     negative rho (up, down):  6.014E-02 0.000E+00

     total cpu time spent up to now is      419.2 secs

     total energy              =     -45.37190681 Ry
     estimated scf accuracy    <       0.00086576 Ry

     iteration # 10     ecut=    60.00 Ry     beta= 0.70
     Davidson diagonalization with overlap
     ethr =  6.18E-06,  avg # of iterations = 12.0

     negative rho (up, down):  4.860E-02 0.000E+00

     total cpu time spent up to now is      461.5 secs

     total energy              =     -45.37120222 Ry
     estimated scf accuracy    <       0.00335068 Ry

     iteration # 11     ecut=    60.00 Ry     beta= 0.70
     Davidson diagonalization with overlap
     ethr =  6.18E-06,  avg # of iterations =  3.0

     negative rho (up, down):  3.619E-02 0.000E+00

     total cpu time spent up to now is      499.0 secs

     total energy              =     -45.37176999 Ry
     estimated scf accuracy    <       0.00008281 Ry

     iteration # 12     ecut=    60.00 Ry     beta= 0.70
     Davidson diagonalization with overlap
     ethr =  5.92E-07,  avg # of iterations =  6.0

     negative rho (up, down):  2.512E-02 0.000E+00

     total cpu time spent up to now is      537.5 secs

     total energy              =     -45.37180405 Ry
     estimated scf accuracy    <       0.00009137 Ry

     iteration # 13     ecut=    60.00 Ry     beta= 0.70
     Davidson diagonalization with overlap
     ethr =  5.92E-07,  avg # of iterations =  5.0

     negative rho (up, down):  2.054E-02 0.000E+00

     total cpu time spent up to now is      573.9 secs

     total energy              =     -45.37179237 Ry
     estimated scf accuracy    <       0.00003492 Ry

     iteration # 14     ecut=    60.00 Ry     beta= 0.70
     Davidson diagonalization with overlap
     ethr =  2.49E-07,  avg # of iterations =  5.0

     negative rho (up, down):  1.505E-02 0.000E+00

     total cpu time spent up to now is      611.0 secs

     total energy              =     -45.37181353 Ry
     estimated scf accuracy    <       0.00000333 Ry

     iteration # 15     ecut=    60.00 Ry     beta= 0.70
     Davidson diagonalization with overlap
     ethr =  2.38E-08,  avg # of iterations =  2.0

     negative rho (up, down):  1.439E-02 0.000E+00

     total cpu time spent up to now is      647.2 secs

     total energy              =     -45.37181441 Ry
     estimated scf accuracy    <       0.00000269 Ry

     iteration # 16     ecut=    60.00 Ry     beta= 0.70
     Davidson diagonalization with overlap
     ethr =  1.92E-08,  avg # of iterations =  1.0

     negative rho (up, down):  1.375E-02 0.000E+00

     total cpu time spent up to now is      673.8 secs

     End of self-consistent calculation

          k = 0.0000 0.0000 0.0000 (285187 PWs)   bands (ev):

   -18.9044 -15.4235 -10.8248 -10.8079  -9.1408  -8.5270  -8.5056  -0.9213
    -0.3766  -0.2298  -0.2291

     the Fermi energy is    -4.8299 ev

!    total energy              =     -45.37181343 Ry

     total all-electron energy =      -160.899982 Ry
     estimated scf accuracy    <       0.00000056 Ry
     smearing contrib. (-TS)   =      -0.00000000 Ry
     internal energy E=F+TS    =     -45.37181343 Ry

     The total energy is F=E-TS. E is the sum of the following terms:
     one-electron contribution =    -119.33938047 Ry
     hartree contribution      =      61.47098899 Ry
     xc contribution           =     -14.24597557 Ry
     ewald contribution        =      39.82656355 Ry
     one-center paw contrib.   =     -13.08400992 Ry

     convergence has been achieved in  16 iterations

     negative rho (up, down):  1.375E-02 0.000E+00

     Forces acting on atoms (cartesian axes, Ry/au):

     atom    1 type  1   force =    -0.00165958    0.00118186   -0.00063415
     atom    2 type  1   force =     0.00433504    0.00357774    0.00830625
     atom    3 type  2   force =    -0.00020503   -0.00027194   -0.00041387
     atom    4 type  2   force =     0.00000457   -0.00032983    0.00042196
     atom    5 type  2   force =     0.00024473   -0.00040129    0.00012081
     atom    6 type  2   force =    -0.00006945   -0.00010013    0.00020919
     atom    7 type  2   force =     0.00015349    0.00059722   -0.00003302
     atom    8 type  2   force =    -0.00280378   -0.00425362   -0.00797716

     Total force =     0.013999     Total SCF correction =     0.000575

     negative rho (up, down):  1.375E-02 0.000E+00

     negative rho (up, down):  1.375E-02 0.000E+00

     negative rho (up, down):  1.375E-02 0.000E+00

     negative rho (up, down):  1.375E-02 0.000E+00

     negative rho (up, down):  1.375E-02 0.000E+00

     negative rho (up, down):  1.375E-02 0.000E+00

     negative rho (up, down):  1.375E-02 0.000E+00

     negative rho (up, down):  1.375E-02 0.000E+00

     negative rho (up, down):  1.375E-02 0.000E+00

     negative rho (up, down):  1.375E-02 0.000E+00

     negative rho (up, down):  1.375E-02 0.000E+00

     negative rho (up, down):  1.375E-02 0.000E+00

     negative rho (up, down):  1.375E-02 0.000E+00

     negative rho (up, down):  1.375E-02 0.000E+00

     negative rho (up, down):  1.375E-02 0.000E+00

     negative rho (up, down):  1.375E-02 0.000E+00

     negative rho (up, down):  1.375E-02 0.000E+00

     negative rho (up, down):  1.375E-02 0.000E+00

     negative rho (up, down):  1.375E-02 0.000E+00

     negative rho (up, down):  1.375E-02 0.000E+00

     negative rho (up, down):  1.375E-02 0.000E+00

     negative rho (up, down):  1.375E-02 0.000E+00

     negative rho (up, down):  1.375E-02 0.000E+00

     negative rho (up, down):  1.375E-02 0.000E+00

     negative rho (up, down):  1.375E-02 0.000E+00

     negative rho (up, down):  1.375E-02 0.000E+00

     negative rho (up, down):  1.375E-02 0.000E+00

     negative rho (up, down):  1.375E-02 0.000E+00

     negative rho (up, down):  1.375E-02 0.000E+00

     negative rho (up, down):  1.375E-02 0.000E+00

     negative rho (up, down):  1.375E-02 0.000E+00

     negative rho (up, down):  1.375E-02 0.000E+00

     negative rho (up, down):  1.375E-02 0.000E+00

     negative rho (up, down):  1.375E-02 0.000E+00
 BEEFens 2000 ensemble energies
             -0.109167589506737E+01
             -0.265880914894931E-01
             -0.208834950794112E+00
              0.736260042424870E+00
             -0.351376518449457E+00
             -0.244562617002662E+00
             -0.809044399859394E+00
             -0.164094819029373E+01
             -0.529170280139425E+00
             -0.582047508932288E+00
             -0.593754947687441E+00
              0.100972360661575E+00
              0.578193759594088E-01
             -0.101830946253934E+00
              0.635440998229080E-01
              0.787408307298699E+00
             -0.319425739085906E+00
             -0.122417540510573E+00
              0.424618457361456E+00
             -0.183322984083358E+01
              0.927381541346277E+00
             -0.303045622192640E+00
             -0.111530654824566E+00
             -0.139217818204300E+00
              0.766892991457970E-01
             -0.672331302267386E-01
              0.146891205330779E+01
             -0.407253102994584E+00
             -0.116206403453059E+00
             -0.943483624939227E+00
              0.110260798673576E+01
             -0.263923809410862E-01
             -0.697234033475899E+00
              0.266738094881501E+00
             -0.469635105330579E-01
              0.519519449877262E+00
              0.415429286611415E-01
             -0.342833703434291E-01
              0.679536692161849E+00
             -0.163681955899700E+01
              0.923938545214253E+00
              0.196134042290015E+00
             -0.234700802378445E+00
             -0.465120759515933E+00
              0.210392269812417E+00
             -0.305848768704500E+00
              0.867599686564827E+00
              0.573803806635850E+00
             -0.286873202718221E+00
             -0.536784501315914E+00
             -0.524499715689577E+00
             -0.636130391705976E+00
              0.421656969550769E+00
             -0.871122726107313E+00
              0.277915081189654E+00
              0.101017839451414E+01
              0.127569951658610E+01
              0.524420103147762E+00
              0.267983746213823E+00
              0.562110824845234E+00
              0.153267542995891E+01
              0.250465195393736E+00
             -0.913581486669139E+00
             -0.143888356448651E+00
             -0.511976192424699E+00
              0.103294226060581E+01
             -0.117272992526571E+01
             -0.981124460510049E+00
             -0.598166246092997E+00
             -0.357972012179838E+00
             -0.611799990998150E+00
              0.464423526791257E+00
              0.238985273148710E+00
              0.270775473304110E+00
             -0.652026513467219E+00
             -0.592373648390191E+00
             -0.989970492452367E+00
              0.504432306344205E+00
             -0.580551639094113E+00
              0.562372539539324E+00
             -0.152528992943869E+00
             -0.465947505300094E+00
             -0.800331036749747E+00
             -0.241738286305415E+00
             -0.293882319689843E+00
             -0.227079033586264E+00
              0.648915674496342E+00
              0.132964958417532E+01
             -0.761626161300342E+00
             -0.130884746188773E+01
             -0.298343224538126E+00
              0.179609022348815E+01
             -0.938366137863350E+00
              0.507721196908036E+00
             -0.191441556998175E+00
             -0.966081552174513E+00
              0.459323068920107E+00
              0.467808285359662E+00
             -0.248036852674597E+00
              0.454740170214265E+00
             -0.406428779855309E+00
             -0.105012659535005E+01
              0.171935625771855E+01
              0.742730824111582E+00
              0.315951953274432E+00
              0.195420625794765E+00
              0.388988237916852E+00
              0.134477757489008E+01
             -0.448472574673746E+00
              0.381774148161240E-01
             -0.228756357046680E+01
              0.287153021770446E+00
             -0.109374099075186E+01
              0.204154573483581E+00
              0.359278005790128E+00
             -0.624005262927993E+00
             -0.822029205123791E+00
              0.283277125278314E-01
             -0.525663094446478E+00
              0.764124829296179E+00
             -0.733256122802937E+00
             -0.165926961450858E+00
             -0.643884578854191E+00
             -0.441668169101970E-01
              0.106699845895545E+00
              0.414604045844134E+00
             -0.219804266497903E-02
             -0.965326621177143E-01
              0.113582780857968E+01
              0.153307432537151E+01
              0.834944323908807E+00
              0.102921859893543E+01
             -0.220782224308793E+00
              0.114689812797859E+00
              0.838477139237524E+00
              0.135106782795873E+00
             -0.126954919780506E+01
             -0.768892903627901E+00
             -0.815611533574250E+00
             -0.491072674923705E+00
              0.423065808703017E+00
             -0.203001853723702E+01
             -0.192261737713392E+00
              0.780704849532385E+00
             -0.683401205153998E+00
             -0.471384154990394E+00
              0.986451496517724E+00
              0.824024110600106E+00
             -0.461257953603225E+00
              0.604448858611585E+00
             -0.427409672786159E+00
              0.637417915198515E+00
              0.112795172466917E+00
              0.149498883942863E+00
             -0.134923082854998E+01
             -0.783713825184148E+00
             -0.151693259873207E+00
             -0.847365590658286E-01
             -0.715513618290775E+00
              0.187036165487241E+01
             -0.154387465155517E+00
             -0.433297959434290E+00
              0.643026408654380E+00
             -0.723874041916429E+00
             -0.650077357446625E+00
              0.544341962955020E+00
              0.209187493131536E+00
              0.170800268407055E+00
              0.290546572151615E+00
             -0.177264886374030E+00
              0.131964867002868E+00
              0.956580438312238E+00
             -0.428264864267816E+00
              0.373420301405533E+00
              0.147075828522718E+01
              0.524444141308912E+00
             -0.454455217696168E-01
             -0.354644742484698E+00
              0.257820788936011E+01
             -0.447785084267401E+00
              0.673581114431684E+00
              0.543950511799512E+00
              0.425306645340507E+00
              0.154514737107013E+01
              0.752836980666732E+00
             -0.815964294741743E-01
              0.427684417455060E+00
              0.887848271344497E+00
              0.629416772326598E+00
             -0.103192494952239E+01
              0.157589675595496E+01
             -0.144177837287772E+01
             -0.151304394872306E+00
              0.919051716360885E+00
              0.321061776309756E+00
              0.857602215063782E-01
              0.429178963051240E+00
              0.241372827096057E+00
              0.525095291327981E+00
             -0.102816252188863E+01
              0.491237858188533E-01
             -0.379193276924383E+00
             -0.677479929176139E-01
             -0.520507403482853E-01
             -0.243454119736358E+00
             -0.110909285464825E+00
              0.138445366641715E+01
             -0.646287223101354E-01
             -0.476802444395216E+00
             -0.156243189166658E-01
              0.247123826909236E+00
             -0.107984259071206E+01
             -0.965018436227967E+00
             -0.547132409657818E+00
             -0.105319350257156E+01
             -0.322256407348291E+00
             -0.667319097418937E+00
              0.287057114746653E+00
              0.447733370117753E-01
             -0.221466553188296E+00
             -0.131427686711532E+00
              0.782080604626212E-01
             -0.197773166612718E+00
              0.108205597898926E+01
             -0.148316568166667E+01
             -0.209333637381902E+00
             -0.214065598133891E+00
              0.248548913924330E+00
              0.389101858012557E+00
             -0.863125371494226E+00
             -0.181828036279698E+00
              0.752188504656383E+00
             -0.319411881919943E+00
              0.226169827297108E+00
              0.545394716710934E+00
             -0.653393913611211E-02
              0.191287597384868E+01
             -0.138452913121749E+00
             -0.580766143442311E+00
             -0.252453276021081E-01
             -0.495896948049899E+00
              0.897632922780319E+00
             -0.852756627987792E+00
              0.257958198284669E+00
              0.766734596007563E+00
             -0.208706747655233E+00
              0.195767638095065E+01
              0.211289829438744E+01
             -0.119873962289184E+01
              0.960545151371300E+00
              0.418799378140712E+00
             -0.942860271330751E+00
              0.286639310030218E+00
              0.753793649716912E+00
              0.806456085411296E+00
              0.758791512486239E-01
              0.342645038095625E+00
              0.126607068966684E+01
             -0.386751164021365E+00
              0.136847772788007E+00
              0.107587355708088E+01
             -0.584372960380416E+00
             -0.441067851328903E+00
              0.102149738308763E+01
              0.527440840132864E+00
              0.126901278801373E+01
              0.599606386314615E+00
              0.257645644762203E+00
              0.400131580864314E+00
              0.726331160308728E+00
             -0.909817994619264E+00
              0.144615209182327E+00
              0.504745791666562E+00
              0.180562355167810E+00
              0.417683953838057E+00
             -0.105768627903739E+01
              0.525694595503742E+00
             -0.711285946711215E+00
             -0.526502110790967E+00
              0.346748883653197E+00
             -0.123543730240095E+00
              0.102895959245405E+01
             -0.194099098862480E+00
              0.487999273618485E+00
              0.490234348192736E+00
              0.127809597698365E+01
              0.862313836277823E+00
              0.869240621727107E+00
             -0.401823250662403E-02
             -0.209011938993275E+00
             -0.491797876254466E+00
              0.139181950253004E+01
              0.138376133457782E+01
              0.660718909845618E+00
             -0.492428561800812E+00
              0.819289977712107E+00
              0.340645858295128E-01
              0.258650352995361E+00
              0.118211340093782E+01
             -0.535136972901529E-01
             -0.175823580034277E+00
             -0.334595845787574E+00
             -0.106840917547497E+01
              0.161317125023876E+01
              0.882994447740230E+00
             -0.111246412007550E+01
             -0.379951186852848E+00
              0.394074308490860E+00
             -0.172049976898253E+00
              0.110149361225549E+01
              0.262416770164871E+00
              0.135476828991139E+01
              0.520189561027674E+00
             -0.355910969867468E+00
              0.271754750351553E+00
             -0.122272554448918E+00
             -0.386054663215930E+00
              0.278050944269681E+00
              0.255149397446047E+00
              0.152340047940309E+01
              0.125675885393261E+01
              0.972478795586248E+00
              0.110791076816632E+01
              0.124750063373926E+00
             -0.431473995840319E+00
              0.218090526594697E+00
             -0.545411705916666E+00
             -0.967790584907975E+00
             -0.927866845054306E+00
             -0.548138601513332E+00
             -0.180414057051322E+01
             -0.646139850374587E+00
             -0.145160387972466E+01
              0.347894251843952E+00
             -0.748649336786101E+00
              0.882505205042841E+00
             -0.166196089171085E+01
             -0.495554143425373E+00
              0.601190399036295E+00
              0.360177385852215E+00
             -0.153042768554766E+01
              0.852880883775144E+00
             -0.491056237909849E+00
              0.925891386169560E+00
             -0.440080007071605E+00
             -0.129939544485427E+01
              0.297673247721952E+00
             -0.109454332023946E+01
             -0.162930726447588E-01
             -0.377130130276708E-01
              0.676897423160477E+00
              0.210297889828903E+01
             -0.705840763664270E+00
             -0.630027406000869E+00
             -0.132016153493907E+00
             -0.107472130424376E+00
             -0.133314819296682E+01
             -0.943341691909211E+00
              0.831497225758337E+00
             -0.271603669246293E+00
              0.398723105320825E+00
             -0.813786128369725E+00
             -0.268706121990506E+00
             -0.696898994985020E+00
              0.794724152215999E+00
              0.188505857974635E+00
             -0.419959489617971E+00
             -0.315583961969113E+00
              0.235050795690395E+00
             -0.119566619737325E+00
              0.646214395307766E+00
             -0.441858358103911E+00
              0.217397115093249E+00
              0.572106511404213E+00
              0.186258211048413E+00
             -0.423598126067649E+00
              0.258306105685985E+01
              0.102064559832813E+01
              0.184420846760733E+00
              0.900635091610482E-01
             -0.101087817971085E+01
              0.563740209876207E+00
             -0.130969985770800E+01
             -0.593839201527791E+00
             -0.101673911265494E+01
             -0.306717507171220E+00
              0.100961430734988E+01
             -0.972333477681881E+00
              0.467654627226537E+00
             -0.865967533447769E-01
              0.129028900181325E-01
             -0.504396963805754E+00
             -0.685152154426263E+00
             -0.143151265895741E+00
             -0.510276700397790E+00
             -0.363169139758902E+00
             -0.660392072907849E+00
             -0.715321078741291E-01
             -0.519672884196507E+00
             -0.799830817145204E+00
              0.344985925171099E+00
             -0.175850363885071E+00
              0.410763899714720E+00
              0.137621220480372E+00
             -0.126782852401107E+01
             -0.834696394501066E+00
             -0.879079370993117E+00
              0.510841753445554E+00
             -0.130505244296129E+00
             -0.100959246196228E+01
              0.956761015047976E+00
             -0.719880449013292E+00
              0.100112871893130E+01
             -0.526162007841004E+00
             -0.810118748885944E+00
              0.395645672415689E+00
             -0.122062759648863E+01
             -0.509438736177688E+00
              0.969005142859694E+00
              0.357331634759841E+00
             -0.746084163636720E+00
              0.946770554030652E+00
             -0.270647032955562E+00
             -0.619395334822865E+00
             -0.493145504531602E+00
             -0.885596718241025E+00
              0.448149488903135E+00
             -0.145891796565826E+01
             -0.125786421349157E+01
             -0.125274887633372E+00
             -0.486245187563295E+00
             -0.103174890961702E+01
              0.128236302109857E+01
              0.232072754115130E+01
             -0.324340123784740E+00
             -0.678418960093392E-01
             -0.100216952212824E+01
              0.111095878554416E+01
              0.370784579323553E+00
             -0.356027683641887E+00
             -0.604068850314326E+00
              0.227341812033705E+00
             -0.988948227473068E+00
             -0.169394421231038E+00
             -0.142442130421221E+01
              0.559358733057955E+00
              0.185213506086139E+00
             -0.102335924935979E+00
             -0.220568213006628E+00
             -0.722943853025958E+00
             -0.240416741414879E+00
              0.231621175507279E+01
             -0.252622044276357E+00
             -0.829500612551472E+00
             -0.116581291937187E+01
              0.244872122232874E+00
             -0.652184688553819E+00
              0.171934300079980E+00
              0.564682448574470E+00
              0.866533577758890E-01
              0.626177946859289E+00
              0.327350489034512E+00
              0.987456508500856E+00
              0.396867626458416E+00
             -0.622528912701373E+00
              0.945777899932430E+00
              0.574337108763681E+00
              0.212120617242738E+00
              0.606318130957614E+00
             -0.548415109477679E+00
              0.118722858427714E+01
              0.455833011909387E+00
             -0.589555349488044E+00
             -0.993665591004183E-01
             -0.274497988370125E+00
              0.237875811297237E+00
             -0.414439904222512E+00
             -0.226353891574032E+00
             -0.213793907099578E+00
              0.135227693284872E+01
              0.984955277713203E+00
             -0.105281600653863E+01
             -0.147682685733211E+00
             -0.822261813169257E+00
             -0.201435656740207E+00
             -0.358783502978032E+00
              0.191927006290921E+00
             -0.499979476376223E-01
             -0.485866607828741E+00
              0.294423757536877E+00
             -0.160564162210094E+00
             -0.108471366223990E+00
              0.145918356393919E+01
              0.239352913462198E+00
             -0.141704486617259E+01
             -0.636778536666066E+00
              0.162347074724068E+01
              0.385701788884963E+00
             -0.141388994222387E+00
              0.184713292110500E+01
             -0.262567093825031E+00
             -0.119794000267285E+00
             -0.224308307630012E+00
              0.270554343714785E+00
              0.578441617683248E+00
              0.442968778279249E-01
              0.480800840075793E+00
             -0.175356418763728E+00
             -0.700639975148569E+00
             -0.656866356029534E+00
             -0.807129389127372E+00
              0.679107091604990E+00
              0.250926629843943E+00
              0.636442124801700E+00
              0.276670403797720E+00
              0.151844384597954E+01
              0.341992978063342E+00
             -0.128355678482822E+01
             -0.550473082175328E+00
              0.281783232856729E-01
             -0.466812766344816E+00
              0.107314522716544E+01
             -0.263932230477311E+00
              0.273630892512746E+00
              0.935435025770902E+00
             -0.137159949386572E+01
              0.246758295212877E+01
              0.331023715590541E+00
              0.407688382015914E+00
              0.647300509997411E+00
              0.423566758361895E-01
             -0.377227644890734E-01
              0.525440270242767E+00
             -0.593608272377595E+00
              0.146865796533784E+01
              0.128611482506404E+01
             -0.644671751744409E+00
              0.293743020778603E+00
              0.121470840134768E+01
             -0.356462661402641E+00
              0.362825068159957E+00
              0.523834212981975E+00
              0.690549712177961E+00
             -0.123363164876421E+01
             -0.817368710138044E-01
             -0.417751996959928E+00
             -0.109310524405641E+00
             -0.133016262356952E+00
              0.147184658866903E+00
             -0.206741700406576E+00
             -0.514826593454938E+00
              0.302338162511208E+00
              0.960765306187050E-01
              0.893910782954834E+00
             -0.789521049951307E+00
              0.790116085165481E+00
              0.867890713687261E+00
             -0.121172095213063E+00
              0.121639559793838E+01
             -0.112821589676886E+01
             -0.172963087153819E+01
             -0.141231840534904E+00
             -0.104870332165639E+00
              0.541119045881544E-02
              0.131071020605008E+01
             -0.106501212237378E-01
              0.721401011549968E+00
              0.102343904393525E+01
              0.657385455753328E+00
             -0.933706433695161E-01
              0.981224941549243E+00
             -0.285986994325254E+00
             -0.666054008487297E+00
             -0.581065515534172E+00
              0.178775085209768E+00
              0.572235175676995E+00
             -0.434665771954021E-01
              0.551266385481078E+00
              0.140415207093958E-01
              0.911563832380996E+00
              0.256798284307378E+00
              0.132360963135805E+00
              0.214738916033586E-01
              0.481136799984892E+00
              0.691262727034359E+00
              0.239640022804438E+00
             -0.590213685702712E-01
             -0.912159025998617E+00
              0.504250198358674E+00
              0.350305196488101E+00
              0.543239047589687E+00
              0.501974746627190E+00
              0.613902694465398E+00
             -0.154079805797488E+00
              0.590426714060406E+00
             -0.517592479150840E+00
             -0.348551800194752E-01
             -0.879215602065039E+00
             -0.586333270468069E+00
              0.729475372891627E+00
             -0.147969439206491E+01
              0.395471525321403E+00
              0.230580630351692E+00
              0.147107953026077E+01
             -0.187638462577462E+00
              0.566548573919331E+00
             -0.199407459732980E+00
             -0.831388011791760E+00
             -0.109164079563394E+01
             -0.276507468206218E+00
             -0.154408955957744E+01
              0.128493640105519E+00
             -0.356265336748742E+00
              0.559879114361206E+00
              0.429973100694383E+00
             -0.491076482764521E+00
             -0.523404471651004E+00
              0.727353141265394E+00
             -0.958278550749310E+00
             -0.239509306846934E+00
             -0.263042624606939E+00
              0.452235054704752E+00
              0.104083985403137E+00
              0.617706539423963E-01
             -0.236942338036335E+00
              0.896560689039159E+00
             -0.103891947951017E+01
              0.112298323690866E+00
              0.101487063156822E+01
             -0.613119605955639E+00
              0.688573270626112E-01
              0.312784260588375E-01
             -0.108645749460081E+01
             -0.621217320552712E+00
             -0.165506813470848E-01
              0.535211115560024E+00
              0.588602908743494E+00
              0.874450185256750E-01
             -0.203407509685260E+00
              0.269271552568640E+00
             -0.663620769809965E+00
             -0.888195178536293E-01
             -0.893842590771738E+00
             -0.449634624442840E+00
              0.851200497997761E+00
             -0.516238779073417E+00
              0.119186957624900E+01
             -0.404403457377143E+00
              0.547548314131858E+00
              0.432887588341151E+00
             -0.100346813406331E+01
             -0.417050212875042E+00
              0.165342381518467E+00
             -0.711252503185767E+00
             -0.702626761700482E+00
             -0.150501830816582E+01
             -0.930939183443251E+00
             -0.824205945999859E+00
             -0.761273438792469E+00
             -0.447877188120671E-03
              0.433472722575498E+00
              0.222592184576435E+00
              0.477932232669076E+00
             -0.990240338180292E+00
              0.220473034763528E+00
              0.509663326903344E+00
             -0.115768487019104E+01
             -0.946725171705316E+00
             -0.660923866550336E+00
             -0.572929482302863E+00
              0.230224958947611E+00
             -0.527734619891937E-01
             -0.684125765660006E+00
              0.456624270613429E+00
             -0.391817476524290E+00
              0.886757913619523E+00
             -0.147533804960095E+01
              0.108806444532231E+01
             -0.212600459082310E+00
             -0.759949995919424E+00
             -0.457755385668557E+00
             -0.282742914951684E-01
              0.824523032147535E+00
             -0.116115117955867E+01
             -0.207832462439511E+00
             -0.275200240934595E+00
              0.679618381636515E+00
              0.134409239328428E+01
             -0.170232620982549E+01
              0.153517712973320E+01
              0.627097385452879E+00
             -0.128172301631202E+01
             -0.517786210170218E+00
              0.133169494192391E+01
              0.954645243621574E+00
             -0.364523771627793E+00
             -0.125165361002727E+00
              0.319725291703018E+00
              0.131842644070298E+01
             -0.101230604120724E+01
              0.209405113864730E+00
             -0.126204432774906E+00
              0.437306004188528E+00
             -0.117736787613460E+01
             -0.297546569425152E-01
             -0.437144806506270E+00
              0.813530134578921E+00
              0.634381409600589E+00
             -0.151438990267680E+01
             -0.792586560290132E+00
             -0.344070574197214E+00
             -0.745587664092348E+00
             -0.204399209633094E+00
             -0.282680340352227E+00
              0.775412631701153E+00
              0.721204965220230E+00
             -0.165533889114782E-01
             -0.733261310161891E+00
             -0.146686106548033E+01
              0.866562163894040E+00
             -0.763265323833657E+00
             -0.639424853463858E+00
              0.132619319032163E+00
             -0.633383862880763E+00
             -0.677770552670727E+00
             -0.538100753216152E+00
             -0.884143715158102E+00
             -0.387779725558665E+00
             -0.822931900184499E+00
              0.918454518447167E+00
              0.975107426799918E+00
             -0.195044730175876E+00
             -0.344708786576713E+00
              0.571176578589476E-01
              0.707192921381388E+00
             -0.141810615952554E+01
             -0.396296159446747E+00
              0.837491732664935E+00
              0.122263475430126E+01
             -0.156785975932766E+00
              0.166604970444981E+00
              0.883917806328276E+00
              0.259737765111510E+00
              0.509176141462886E-01
             -0.645174268922604E+00
              0.235302341944156E+00
             -0.538492390220563E+00
             -0.116752795275747E+00
             -0.357692324982875E+00
             -0.232119664923156E+00
              0.419301612954214E+00
              0.134036173463916E+01
             -0.139164124067323E+00
              0.280962408008447E-01
             -0.154196651529361E+01
             -0.305295168440114E+00
             -0.591385598631739E+00
             -0.327778205535112E-01
             -0.802634806449125E+00
              0.153263015412069E+01
              0.147103460286178E+01
              0.322890917428375E+00
             -0.413883567966302E+00
              0.315241683103441E+00
              0.336308763386812E+00
             -0.776463802985619E+00
             -0.166829144396228E+00
              0.344127940202327E+00
              0.199309382977288E+00
              0.844945176684565E+00
              0.646708160129208E+00
             -0.344099707880444E+00
              0.344182884025851E+00
             -0.164665562145586E+01
             -0.227593144383433E-01
              0.151987971030521E+01
              0.328369976048890E+00
             -0.492594399952182E-01
              0.443650037021081E+00
             -0.390936634710396E+00
              0.145741186923062E+01
             -0.356467239243161E+00
              0.129535656980099E+01
              0.645866235806492E+00
             -0.768592382470109E+00
              0.564196775329437E+00
             -0.464918648573904E+00
             -0.114270921023890E+01
             -0.136075888515415E+00
             -0.903845140133104E+00
             -0.880227801401249E+00
             -0.162978430323601E-01
              0.644776758649664E+00
             -0.248823980943735E+00
             -0.510209916958924E+00
              0.124404258361753E+00
             -0.109248584582862E+01
             -0.441240722174370E-01
             -0.148134708213509E+01
              0.874216387836079E+00
             -0.645074425870162E-01
             -0.820792181129882E+00
             -0.262095219362205E+00
              0.295451761365973E+00
             -0.650388705088898E+00
             -0.733021194069859E+00
              0.153911336416966E+01
             -0.478045498327092E+00
             -0.616722378669579E+00
              0.558333944486571E+00
             -0.389617084492790E+00
              0.970189490080671E+00
             -0.440853478633390E-01
              0.281108156287697E-01
              0.185609042309191E+01
             -0.132425340767751E+00
             -0.650100341320952E+00
             -0.811609710177404E+00
             -0.861801521727234E+00
             -0.635759484067249E+00
              0.485309426603635E+00
              0.540006957386580E+00
              0.482413562196930E+00
              0.124371856570258E+01
              0.929226488032899E-01
              0.397177237598856E+00
             -0.961995670344971E+00
              0.300579119600197E-01
             -0.259283642217561E+00
             -0.476925045397126E+00
             -0.126064352849069E+00
              0.549366987851664E+00
              0.642473376589404E+00
             -0.477898670615532E-01
              0.224212002050841E+00
              0.461679180407918E+00
              0.571761339664050E+00
             -0.388958620348705E+00
             -0.152298271087465E+00
              0.224079655662468E-02
             -0.443354704017063E+00
             -0.467330430558617E-01
             -0.687596167265726E+00
              0.133278662708564E+01
              0.103698083849365E+01
             -0.329641518881774E+00
              0.292740194011219E+00
             -0.106107211119025E+00
             -0.547704529474222E+00
              0.631423245813286E+00
             -0.155040347741325E+00
              0.612661172792103E+00
             -0.793314755556103E+00
              0.298697098272198E+00
             -0.132445484693546E+00
             -0.896967218340528E+00
             -0.407902503762482E+00
              0.401348048571871E+00
             -0.166731404788399E+01
              0.638246896915441E+00
              0.779304640228346E+00
             -0.172141426927087E+00
             -0.129121334611979E+00
             -0.667080979003098E-01
              0.446905218991978E+00
             -0.580940663350376E+00
              0.521235837775205E+00
              0.540712361063828E+00
             -0.151025166637854E+01
             -0.618186831952479E+00
              0.409216437351939E+00
             -0.208443958527655E+00
              0.843504503757346E+00
             -0.104279909574146E+01
             -0.189886830200795E+00
             -0.664620003899938E+00
             -0.220634905896652E+01
              0.133157281057734E+01
             -0.100049948368682E+01
             -0.114448297757689E+01
              0.109048322344764E+00
              0.217138909003830E+01
              0.124438116723238E+00
             -0.565998710514880E+00
             -0.229631947952713E-01
             -0.534282095241769E-01
             -0.143288336050490E+01
             -0.914130387023284E+00
              0.145414717851582E+01
             -0.219632616730327E+00
             -0.600404059203644E+00
              0.817477113518425E+00
             -0.545367902469045E+00
              0.553130513068162E+00
              0.813274532586278E+00
             -0.878119663715925E+00
             -0.473277444437160E+00
             -0.527450667587355E+00
             -0.298265615671244E+00
             -0.332925280090112E+00
             -0.332041396422857E+00
              0.337796554715343E+00
             -0.602609641504608E+00
              0.467729631931542E+00
              0.920790018664369E+00
             -0.935457012654789E-01
             -0.353854531410051E+00
              0.262031869553684E+00
              0.915269698298069E+00
              0.928395391273704E+00
              0.191229241921493E+00
             -0.191082643518517E+00
             -0.198383260655810E+00
             -0.899784308510582E+00
              0.691922668341838E+00
             -0.415711935685708E+00
              0.389536222947786E+00
             -0.225701309827624E+00
              0.430014058958043E+00
              0.286667756226849E+00
             -0.137703319907881E+01
             -0.429256380628146E+00
             -0.132450534929139E+01
             -0.679721228973717E+00
              0.624244843209785E-01
             -0.332875305385289E+00
              0.598671455361956E+00
             -0.479473084417294E+00
              0.643817104194324E-01
              0.116419402965323E+00
              0.117185380637079E+01
              0.610104086713898E+00
             -0.551344611878617E+00
             -0.500261271527473E-01
              0.265297643814344E+00
              0.623795886492376E+00
             -0.935573781817745E-02
              0.964126711271677E+00
              0.464294896883257E+00
              0.150976444510665E+01
              0.607954584651098E-01
              0.104506531964630E+01
             -0.460741968314675E+00
             -0.659625341924933E+00
              0.331893930029068E-01
              0.181674873533032E+00
              0.367718946151293E+00
             -0.373091326991959E+00
             -0.180713226631431E+00
              0.393867616438317E+00
             -0.806968488839641E+00
             -0.101648792268763E+01
              0.133334759141317E+01
             -0.108071961999851E+00
             -0.612959847326684E+00
             -0.914124315980254E-01
             -0.231620136484946E+00
              0.754236310727534E+00
              0.610698619233573E+00
             -0.350543822576174E+00
              0.586000620368266E-02
             -0.433554032926586E+00
             -0.605337972848878E+00
             -0.388409219740662E+00
             -0.163782730536587E+01
              0.348680965314139E-01
             -0.108340787309878E+01
             -0.996147860991845E+00
             -0.625354748584968E+00
              0.379816401339917E+00
             -0.648793386138709E+00
              0.405728887941088E+00
             -0.110204449501829E+01
              0.519653041878954E-03
             -0.706409618820755E+00
              0.135263543697410E+00
              0.130135660996956E+00
              0.613340167287522E+00
             -0.358049555454393E+00
             -0.319378733782098E+00
              0.547326534365476E+00
              0.100993490766919E+01
              0.543254230635918E+00
              0.185985267039392E+00
             -0.126487985629452E+01
             -0.273601180123798E+00
             -0.465404464169093E+00
             -0.103824658060657E+01
              0.733866239882937E+00
             -0.582372127876136E+00
             -0.130335890202527E+00
             -0.479164960524212E+00
             -0.166221385949761E+01
              0.947386127717344E+00
             -0.315519161524567E+00
              0.650864715018082E+00
             -0.125184135959568E+01
              0.110812249012811E+01
              0.103401929174727E+00
             -0.426271990616917E+00
              0.178594292358556E+00
             -0.329739374076086E+00
             -0.105154640939547E+01
              0.296192216145623E+00
              0.681371663802630E+00
             -0.277179274309436E-01
             -0.578938331741773E+00
             -0.274650467422772E+00
              0.358906631182138E+00
              0.628745439322960E+00
              0.103639546020244E+01
              0.379438667463894E+00
             -0.384547836223724E+00
              0.170430090271864E+01
              0.342977488081626E+00
              0.814210290376963E+00
             -0.282469732799235E+00
              0.492846825889737E+00
              0.409706152819944E+00
             -0.104696475200633E+01
             -0.375498598711883E+00
             -0.681114821581875E+00
             -0.715191655521681E+00
             -0.208991543806204E+00
             -0.129129190553547E+00
             -0.797547667635749E+00
             -0.186638192258081E+01
             -0.449799442310752E+00
              0.227088250668004E+00
              0.927219239790951E-01
              0.276767546102689E+00
              0.662288050742223E+00
              0.162052546355540E+00
              0.524444813963584E+00
             -0.732171334997882E+00
              0.724927579016166E+00
             -0.644614303793240E+00
             -0.111838836734699E+01
              0.334311890936164E+00
             -0.710657216592938E+00
             -0.667978245531110E+00
             -0.268472703691859E+01
             -0.121262018028822E+00
              0.142734056415587E+01
              0.679910926153943E+00
             -0.177683649116507E+00
             -0.169478885511966E+00
              0.764175547431859E+00
              0.106598502970282E+01
             -0.665283802664970E+00
             -0.210653505775518E+00
             -0.611724749159875E+00
             -0.558572984660081E+00
             -0.493143006228994E+00
              0.168429807336389E+00
              0.115793146186081E+01
             -0.109870994164553E+01
             -0.916483086747342E+00
              0.652895002070739E-01
             -0.248466734360904E+00
             -0.297569822277834E+00
             -0.149390666176967E+01
              0.106664714070240E+01
              0.328712550735005E+00
              0.152333878761119E+00
              0.874616506895066E+00
             -0.555515096164193E+00
              0.568619385498335E+00
              0.484228141240869E+00
              0.159505846103096E-01
             -0.141435439476686E+00
              0.138089071037424E+00
             -0.261174537127677E+00
              0.885271520614717E+00
             -0.658435617121334E+00
              0.784891956519907E+00
              0.155844215551688E+00
              0.296618754960599E+00
              0.331652477550456E+00
             -0.136090011432711E+01
              0.179884421166264E+00
             -0.112750651637092E+01
             -0.807516624826180E+00
             -0.795550821290206E+00
             -0.892913585311569E+00
              0.360210014188489E-02
              0.324682757343381E+00
              0.838116317537654E+00
              0.117657493893141E+00
              0.255667331347438E+00
             -0.116261502482768E+01
             -0.467912697751262E+00
              0.549355607364627E+00
             -0.681077897555622E-01
             -0.647441749753677E-01
             -0.166979492531585E+00
              0.592497017397501E+00
             -0.152603652002937E+01
              0.223065950783478E+00
              0.342689758973593E+00
              0.649886531317952E+00
              0.613303888296068E+00
             -0.949224172507299E+00
              0.282758137806073E+00
              0.118520051359654E+00
              0.121504059976052E+00
              0.104971635227451E+00
             -0.342452343290068E+00
             -0.741612215273246E+00
              0.299251715509455E+00
              0.975568788589250E+00
             -0.139291067818288E-01
              0.234415759890250E+00
              0.207040569842350E+00
             -0.530904970451814E+00
             -0.562278358945287E+00
             -0.207136950272451E+01
             -0.638179385261055E+00
             -0.100610697820795E+01
             -0.108946332656774E+00
             -0.115539714884064E+01
              0.127239708674385E+01
             -0.576529149835185E+00
             -0.929976653254237E+00
             -0.264252879808617E+01
              0.113062292247599E+01
              0.254113300789238E+00
              0.188267404270202E+00
             -0.102501957288129E+01
              0.721042366167080E-01
             -0.283772480836357E+00
             -0.521638704828071E+00
              0.128103912788927E+00
              0.550169407485170E+00
              0.796339488730828E-01
             -0.351949677280777E+00
              0.766980994397723E-01
              0.276876750320572E-01
              0.162208764153295E+00
             -0.113821472070122E+01
              0.124500835397766E+01
             -0.693164505886868E+00
             -0.446441886000861E+00
             -0.883177560409774E+00
             -0.186358711248271E+01
              0.666196414337152E-01
             -0.978959358543363E+00
             -0.301383388190671E+00
              0.517054484060480E+00
             -0.454162889254396E+00
             -0.208666305082286E+00
             -0.220301868540555E+00
             -0.325029162340145E+00
              0.566844605746180E-01
              0.872153421425224E+00
             -0.845872020664130E+00
              0.176311995222835E+01
             -0.440645703586613E+00
              0.543628071992071E+00
             -0.314125926812097E+00
              0.195673683765273E+00
             -0.200107934498146E+00
              0.744976502793968E+00
              0.104809766434888E+01
              0.302842816111707E+00
              0.726305966458579E+00
             -0.479091424557027E+00
             -0.131598997926119E+00
             -0.396409220470204E+00
              0.106794643028254E+01
              0.927358308703960E+00
              0.670111717045076E+00
             -0.214293674174039E+00
             -0.423271477485962E+00
              0.405324758830104E+00
             -0.499633950586129E+00
             -0.253606706163385E+00
             -0.958066191248399E-01
             -0.609583639617967E+00
              0.817746538152716E+00
             -0.196385859435037E+00
              0.595409306416193E+00
              0.384081217591506E+00
              0.248872233620209E+00
             -0.564167054762541E+00
              0.410446053807721E+00
             -0.222345281816959E+00
             -0.117865573208348E+00
             -0.106721325760200E-01
             -0.808157236434786E+00
              0.130450503286194E+01
             -0.441333594565904E+00
              0.832093752383400E-02
              0.418306243218246E+00
              0.361893855402173E+00
              0.131271368095779E+01
             -0.368243588063673E+00
              0.125796301241467E+01
              0.112064753949134E+01
             -0.156537659968699E+01
              0.109203895235169E+00
             -0.303550907482983E+00
              0.206045552716700E+00
              0.804315223243401E-01
              0.361621872612793E+00
              0.107822560820425E+01
              0.168635089272946E+01
             -0.122695915910250E+01
              0.127739779808649E+01
             -0.169807571249011E+01
             -0.146962900201998E+01
             -0.253054585378750E+00
              0.169946037205375E-01
              0.134118718591170E+01
              0.539716753386118E+00
             -0.215276773125029E+00
             -0.137996085411851E+01
              0.111576196729143E+01
             -0.689957727091238E+00
              0.287232658747882E-01
             -0.942930013309375E-01
              0.218741295086123E+01
             -0.364842900100774E+00
             -0.176753142235976E+01
              0.504636602166606E+00
             -0.272168646843016E+01
              0.220672098649540E+00
             -0.650309122928593E+00
             -0.297633121858895E+00
             -0.424544485986837E+00
             -0.100035188026528E+01
              0.604161705093460E+00
             -0.614422902463627E+00
             -0.229646759786228E+00
             -0.127007746260713E+01
             -0.620100896858036E-01
             -0.911715645699167E+00
             -0.130456289468413E+01
             -0.176528091842276E+01
              0.142241049657412E+00
             -0.633575525693634E+00
              0.184013345567685E+00
             -0.237509259159693E+00
             -0.140924044889130E+01
             -0.108194420517836E+01
             -0.967586466665947E+00
             -0.997339616698954E+00
              0.879442967273029E+00
              0.871402477846250E-01
             -0.831302713556052E+00
             -0.426293840188114E+00
             -0.479122565620500E+00
              0.709733571125277E+00
             -0.498880466475964E+00
             -0.647198322110014E-01
             -0.549538284064301E+00
             -0.664829988548898E+00
             -0.706550356733245E+00
              0.680191828258199E+00
             -0.203815304799666E+00
             -0.155082088775293E+01
              0.129768761638303E+01
              0.754935177623411E+00
              0.432982790984591E-01
             -0.138138296182411E+01
             -0.124428337772792E+01
              0.835902140568106E-01
              0.136579015838905E-01
             -0.579980910289114E+00
             -0.723295797356457E+00
              0.501695121327629E+00
             -0.749530773083347E-01
              0.461224970093327E+00
              0.801122950860591E+00
              0.591896611357221E+00
              0.401340750815980E+00
              0.357133746530564E+00
             -0.382061362240623E+00
             -0.264222282370593E+00
             -0.313076508076211E+00
             -0.647724875548704E+00
             -0.783930912156181E+00
             -0.100581844572316E+01
             -0.594745649243280E+00
             -0.211924398824747E+00
             -0.124295444078161E+01
             -0.297476090506114E+00
              0.619532123811327E+00
             -0.144443644653270E+01
              0.637053404250548E+00
              0.521115251908201E+00
             -0.121799272940598E+01
             -0.927478298270917E+00
             -0.396995599796539E+00
              0.189768016479220E+00
             -0.701327650948450E+00
              0.128028589015941E+01
              0.112466967674117E+01
             -0.130726504333606E+01
              0.682955249602413E+00
              0.608941060127248E+00
              0.183684383010170E+00
              0.302016690989290E+00
             -0.720906333597300E+00
             -0.268827952320682E+00
              0.113344555443602E+00
              0.349230777004584E+00
              0.687038966884105E+00
             -0.915115675810517E+00
             -0.203238174132198E+00
              0.265990225145411E+00
              0.198440781050892E+00
             -0.592773136807666E+00
              0.317082487473030E+00
             -0.413940306805006E+00
             -0.304473456278220E+00
             -0.224564211498102E-01
             -0.104315096582929E+01
             -0.175266177729521E-01
             -0.128279831945859E+00
             -0.256311995360776E+00
              0.285759205652911E+00
             -0.879273498215358E+00
              0.992401567093212E+00
             -0.361510536513190E+00
             -0.226616118129724E+01
             -0.144995249673060E+01
              0.580294793081887E+00
             -0.711695516661131E+00
             -0.362371395055920E+00
             -0.381443597295184E+00
             -0.329765128280454E+00
             -0.175550433729405E+01
             -0.318774638170005E-02
             -0.104146328837743E+01
             -0.577172358160406E+00
              0.316061108328500E+00
              0.135022990158497E+01
              0.877312218171603E-01
              0.500966869844490E-01
              0.101206217679018E+01
             -0.996898227547844E+00
              0.459491717550452E+00
              0.884426476343050E-01
             -0.907820723986916E+00
             -0.537639295692618E+00
              0.318929735074113E+00
              0.556181757391243E-01
              0.300342639770940E+00
              0.225754989091409E+00
             -0.389381114744740E+00
             -0.570757094980557E+00
             -0.839570099002435E+00
              0.842481381117806E+00
             -0.115320410912745E+01
             -0.859513716006026E+00
              0.243300331025478E+00
             -0.140688010231571E+01
              0.406379683043973E+00
              0.100578380661794E+01
             -0.212776269905216E+00
              0.352139915464684E+00
             -0.586877601111944E+00
             -0.373355934093516E+00
              0.176291351355068E+00
              0.605836288330798E+00
             -0.607442155827614E+00
              0.368154810835505E+00
             -0.246403774946210E+00
              0.142466314932448E+00
              0.307910117880851E+00
              0.151922535286640E+00
             -0.224131956960590E+00
             -0.167471753201420E-01
              0.173314705436752E+00
              0.477835019076905E+00
             -0.118747576416205E+01
             -0.370692971206434E-01
              0.879850157922204E+00
             -0.146887495300206E+01
              0.558133486130821E+00
             -0.190577387943782E+01
             -0.197149311679325E+00
             -0.236555044941490E+00
             -0.483452012377459E-01
             -0.223531754216272E+00
             -0.467922542121712E+00
             -0.185091931721255E+00
              0.185973874929759E+00
             -0.439364931021468E+00
              0.182313637819768E+00
              0.153930324569334E+01
             -0.947518419224978E+00
             -0.420502590225333E+00
              0.714682520233620E+00
              0.347751622204705E+00
              0.726422462717767E+00
              0.347694137026962E+00
              0.262907670415708E+00
             -0.237555499533173E+00
             -0.828283069237075E+00
             -0.765287902853633E+00
             -0.603371821969968E+00
              0.107839680213726E+00
             -0.710663967495131E+00
             -0.191847627143090E+00
              0.972503174882449E-01
              0.411885450952774E+00
             -0.105168906164136E+00
              0.100265816999164E+01
             -0.112542724768483E+01
             -0.164201843563339E-01
             -0.131574629282186E+00
              0.533143603131411E+00
             -0.712988291536510E+00
             -0.466899176344178E+00
              0.198035909588732E+00
              0.755924676640050E+00
              0.128019774805095E+01
              0.499990490327738E+00
              0.783741508481778E+00
             -0.407475858133525E+00
              0.106936780797360E+01
              0.105858607600451E+01
             -0.908497989772705E-02
              0.489951049668326E+00
              0.627772296674681E+00
             -0.334764456359353E+00
              0.261192594577170E+00
              0.111056317176011E+01
             -0.351430860644265E+00
             -0.970399723767486E-01
             -0.105465659621279E+01
              0.358978109447211E+00
             -0.267974986428928E+00
              0.369556193350236E+00
              0.122599510370192E-01
             -0.657018805761601E+00
              0.772162267058620E+00
              0.654961619714900E+00
             -0.536676206666936E+00
              0.283325215814748E+00
             -0.101260221092060E+01
             -0.921548813153993E+00
              0.416021964634052E+00
             -0.114574294921811E+01
             -0.586662255596172E+00
             -0.596710686856738E-02
              0.145792820084203E+01
             -0.373957007970149E+00
             -0.195038060255300E+00
             -0.352102163915712E+00
              0.188608473545188E+01
              0.313468503385821E+00
             -0.713455594835345E+00
              0.120208296553763E+01
              0.105044781840702E+01
              0.554957338269833E+00
              0.135417682016653E+01
              0.147609277952167E+01
             -0.458708722515598E-01
             -0.480175824853057E+00
             -0.417292700235901E+00
              0.466807130917251E+00
              0.654833019732166E+00
             -0.127434243500354E+00
             -0.408779871354078E+00
             -0.959880124047266E+00
             -0.327422465049295E+00
             -0.783383617363462E+00
              0.570711884704409E+00
              0.304138977792402E+00
              0.101384070469706E+01
              0.243329844384780E+00
             -0.385709290228220E+00
             -0.143884197617093E+00
              0.668209080004026E+00
              0.172053973742589E+00
              0.105599489819682E+01
              0.930075143639394E+00
             -0.131132259545188E+00
             -0.152621067500906E+00
             -0.172461315714066E+01
              0.824902742978580E+00
              0.220538608070697E-02
              0.988998123958764E+00
             -0.448561676252647E+00
             -0.112349039011572E+01
              0.316773836892297E+00
              0.122855675580296E+01
             -0.423673489766536E+00
              0.110427134190641E+01
             -0.120630211532440E+01
             -0.444456036602249E+00
             -0.145566187531083E+01
              0.256423943807593E+00
              0.715103695569104E-01
              0.153664794385579E+00
             -0.104870136800950E+01
              0.157596019406891E+01
              0.910821226448832E+00
              0.954170509241870E-01
             -0.933693914945697E+00
              0.344402458580991E+00
             -0.295133225055570E+00
             -0.259117570230286E+00
             -0.464933508589835E+00
              0.276613424254201E+00
             -0.303918876284287E+00
             -0.303654403159136E+00
              0.401236593907521E+00
              0.389568500112573E+00
             -0.152045752296504E+01
              0.330950996342235E+00
              0.110944786150149E+01
              0.713696688253085E+00
             -0.220346021035686E+00
             -0.428011364925598E-01
             -0.622445907736681E+00
              0.932647736036755E+00
              0.133343430717014E+00
             -0.470400236499433E-01
             -0.101703717956720E+00
              0.182237604385162E+01
             -0.133496932914380E+00
              0.356513633582604E+00
              0.126108841850111E+01
              0.161237632820370E+01
              0.993022361598705E+00
              0.651703435506785E+00
             -0.108001517420178E+01
             -0.786116424871025E+00
              0.608396876682115E+00
              0.989197072037031E-01
              0.517842757498854E+00
              0.198930209104080E+00
              0.110842894515116E+01
             -0.134356181289751E+01
             -0.818618683653721E+00
             -0.198260349615166E+00
             -0.146665353175240E+01
              0.324059998482131E+00
              0.787632098166719E+00
             -0.135618811659848E-01
             -0.341646292925916E+00
              0.346402570407410E+00
              0.225389051443983E+01
              0.545689169204047E+00
              0.295420060148833E+00
             -0.786421614348325E+00
             -0.962482063550556E+00
             -0.232098962232524E+00
              0.481952862656613E+00
             -0.986785061818436E-01
              0.460074892300632E+00
              0.602103157125178E+00
             -0.102069577999263E+01
              0.457441621215871E+00
              0.532622320093401E+00
              0.932603145104151E+00
             -0.177124835496558E+00
              0.947508055530379E-01
             -0.114054789762740E+00
             -0.735516082221279E+00
             -0.124682498790690E+01
              0.125550139011094E+01
             -0.170968871604538E+00
             -0.876930409866910E+00
              0.152199752852470E+00
             -0.525371518900459E+00
              0.142662723556934E+01
             -0.386428084283869E+00
             -0.645482805096098E+00
              0.643873389469375E+00
             -0.261881553591147E+00
              0.782168934204050E+00
              0.658227702400227E-01
              0.153608131623559E+01
              0.884615061131077E+00
              0.233534604931101E+00
             -0.666991141025596E+00
              0.484148223576355E+00
             -0.906725800408553E+00
             -0.630998805617040E-01
              0.109250241230683E+01
             -0.424146235233656E+00
             -0.717728336537678E+00
             -0.387009697874543E+00
              0.863086843817285E+00
              0.180727085093657E+00
             -0.135771593810885E+01
              0.581494109316850E+00
              0.931472530683202E-01
              0.196804987868249E+00
             -0.818243205588592E+00
              0.179366530169964E+00
              0.574403308780329E+00
              0.754602797277201E+00
              0.110563157630740E+01
              0.607176477594183E+00
              0.124367923552346E+00
             -0.943510388650462E+00
             -0.700878740467243E+00
             -0.105970926533176E+01
             -0.255809148591821E+00
              0.587577310244815E+00
             -0.129135140467085E-02
              0.875791540894522E+00
             -0.540072830026604E+00
              0.284020606961774E+00
             -0.417311852091769E+00
             -0.448779479985590E+00
              0.986835388318806E+00
              0.871026999966054E-01
              0.105442042184310E+01
              0.934192145356301E-01
              0.321318657600854E+00
             -0.260544430441206E+00
              0.995567509052197E+00
             -0.288864871341504E+00
              0.587737431869995E-02
             -0.131274344028099E+01
             -0.114077385038883E+00
              0.115762254031766E+01
              0.107158158351610E+01
              0.422521083714330E+00
             -0.253994558929822E+00
              0.100017099739010E+00
             -0.412518271428132E+00
             -0.351328135411953E+00
              0.151066798688405E+01
              0.144353131821422E+00
             -0.492964827284712E+00
             -0.177130072332150E+01
             -0.689216700178240E+00
             -0.639980912527303E+00
             -0.100062027494994E+01
             -0.101301701226463E+01
             -0.118178889985211E+01
             -0.754088224285753E+00
             -0.455439086465105E+00
             -0.798918641282245E+00
              0.738732590493050E+00
             -0.279954369204022E+00
             -0.137600022473245E+01
              0.701821483283596E+00
             -0.580844393673891E+00
             -0.131706699627564E+01
              0.169350009273672E+01
             -0.432177218399605E+00
              0.243601391304236E+00
              0.625728736441868E+00
              0.258545224756618E+00
              0.446540468071206E+00
              0.164063852648941E-01
              0.256115753860416E-01
             -0.225041459456977E+00
             -0.124174941436473E+01
              0.179727224697922E+00
             -0.199066694936388E+01
              0.123688680967974E+01
             -0.674463596876714E+00
             -0.325600807484627E+00
             -0.353974413717154E+00
              0.396199066804760E+00
             -0.267720333870395E+00
              0.465818572458810E+00
             -0.985951218130746E+00
              0.601611073352232E+00
              0.734114538554536E+00
              0.130744294146066E+00
              0.162545615352041E+00
              0.363007584670966E+00
              0.171475539650271E+00
              0.498338901306426E+00
             -0.576453994742785E-01
             -0.127888464905092E+01
              0.159295845797966E+00
             -0.598100335065733E+00
             -0.436561229266292E-01
              0.960362692486632E+00
             -0.133899579250831E+01
              0.482480010905988E-01
              0.656705616439828E-01
              0.164868331526394E+00
              0.502917636297178E+00
             -0.213693203566227E+00
              0.141370371739578E+01
              0.578104313690180E+00
             -0.227767769993474E+00
             -0.131458897203672E+00
              0.113715562892930E+00
              0.131475965027553E+01
             -0.809531766910860E+00
             -0.168856807963701E+01
              0.495223679456204E+00
             -0.137775751865232E+00
             -0.275189496527947E+00
              0.328377026712243E+00
              0.125580595522531E+01
              0.683272362292821E+00
             -0.284607310024824E+00
             -0.923153972307737E+00
             -0.230948283982983E+00
              0.456798972539319E+00
             -0.310182716101840E+00
             -0.128637324706249E+01
             -0.178537281007356E+00
             -0.165459147441510E+01
             -0.871720308698295E+00
              0.149009574659244E+01
             -0.883071116545491E+00
             -0.120844887034983E+01
             -0.897463104703086E+00
             -0.684279745960942E+00
              0.582545156838788E+00
              0.143425975798199E+01
             -0.185681382832195E+00
              0.449204731450150E+00
             -0.347527498443374E+00
             -0.114219730381805E+01
              0.889683384662538E+00
             -0.824496321282895E+00
              0.409561287177766E+00
              0.453276408023073E+00
             -0.279930001940257E+00
              0.599717008760150E+00
              0.628104474085818E+00
              0.206501428252732E+01
             -0.157786477679325E+00
             -0.988459231165212E+00
             -0.112413173721811E+01
             -0.328532354005773E+00
             -0.735799174240346E+00
              0.154946722544155E+01
             -0.773908442851330E+00
              0.165898862354073E+00
              0.259884434368036E-01
             -0.313960542423728E+00
             -0.146223063448767E+01
             -0.114495779613382E+00
              0.169631990454883E+01
              0.390569187704666E+00
              0.120382735128436E+00
             -0.100757264656113E+01
             -0.903182134111546E+00
             -0.320086858625991E+00
              0.760895823087722E+00
             -0.457168816479826E+00
              0.168183066161351E+01
             -0.819195120761257E+00
              0.319455318357140E+00
             -0.207372423190002E+00
             -0.103166878858086E+01
              0.123913670625483E+00
             -0.969660358947749E+00
             -0.124356919162335E+01
              0.191667612439579E+00
              0.213178535054115E-01
              0.817990946582925E+00
              0.463038718643345E+00
             -0.602401115001705E+00
              0.363861779842242E+00
             -0.151070983122110E+01
             -0.783646739492804E+00
              0.157464377412532E+01
              0.261074083814735E-01
             -0.712590076795507E-01
             -0.395168692186211E+00
              0.120046724916634E-02
             -0.214297215771467E+00
              0.157516398773886E+01
              0.701021174083930E+00
             -0.123542109415423E+00
              0.195551788170913E-01
             -0.633118823193113E+00
             -0.186390453047372E+00
             -0.102969772070833E+01
              0.883846712820475E+00
              0.113755146726479E+00
              0.122531731255474E+00
              0.327010908427406E+00
             -0.253453533597019E+00
             -0.394100239753158E+00
              0.173606306483745E+00
             -0.188898433437634E+01
             -0.165576547620477E+00
             -0.173469255252265E+00
             -0.986995800780968E-01
              0.797910979177298E+00
              0.109745356627728E+01
              0.307441247590351E+00
             -0.156314536357098E+01
              0.107640174142984E+01
             -0.414184443943140E+00
             -0.619653369992042E+00
             -0.146776772072514E+01
             -0.444600028600699E+00
              0.107912308288214E+01
              0.584676295496923E+00
              0.297196451962987E+00
              0.596898836033861E+00
             -0.934455686412372E+00
             -0.832189323829470E+00
              0.107707647823533E+01
              0.706969742838583E+00
              0.780160689739118E+00
              0.178953593492979E+00
              0.192148288177385E+00
              0.888056200345732E+00
              0.166093407608761E+01
             -0.290310037531492E+00
              0.686112628945775E+00
             -0.528362271960958E+00
             -0.735713605515566E+00
             -0.589864542060630E+00
             -0.575544409523546E+00
             -0.235610940131858E+00
             -0.794290232842664E+00
             -0.309213816586672E+00
             -0.215787171477116E+01
              0.530400014591161E+00
              0.499988506286162E+00
             -0.557925832981163E-01
             -0.608209725761819E+00
             -0.289918703648639E+00
             -0.961622300503727E+00
              0.873325398771350E-01
              0.132837511901210E+01
             -0.311932527739552E+00
             -0.328087915871779E+00
              0.318169056777325E+00
             -0.868801125021583E+00
              0.144516337436771E+01
              0.256518532043639E+00
              0.787502379971503E-01
              0.874345395052461E+00
             -0.126075655989825E+00
              0.998848053493992E+00
              0.346922142399475E+00
             -0.195433304180685E-01
              0.238919635371404E+00
             -0.191195214450237E+00
              0.112852452646012E+01
              0.120094986159462E+00
              0.377585407150284E+00
             -0.154894808175947E+00
              0.169657551142190E+00
             -0.158446821119643E+01
             -0.582481701431814E+00
             -0.845416056718157E+00
              0.840031917955845E+00
             -0.614892675040699E+00
             -0.916770540374010E+00
              0.100527310657740E+01
             -0.231058526717848E+00
              0.700402304600228E+00
             -0.148793688056294E+01
              0.286261235427415E+00
              0.524004327811900E-01
              0.123496443679807E+00
             -0.241812283880591E+00
             -0.109216744366874E+00
              0.841335883653512E+00
              0.453880411489012E-01
             -0.903167421913973E+00
             -0.385728176952153E+00
              0.290383553256538E+00
             -0.195115519525108E+01
             -0.145615431088615E+01
              0.123491194338516E-01
              0.285692684456831E+00
             -0.889883774814572E+00
              0.329824272492587E-01
              0.172710061314483E+01
              0.471306039281719E+00
             -0.913488683026539E+00
              0.122634108737834E+00
             -0.176569606874448E+00
              0.232513620411657E+00
             -0.616243316454563E+00
              0.405298254593760E+00
              0.386296862455136E+00
             -0.146768939535035E+00
              0.190150340832112E+01
             -0.595150989860476E-01
             -0.510303758963852E+00
              0.542189391707201E+00
              0.729230489982200E+00
             -0.532830431251992E+00
             -0.691288110851929E-02
              0.166755653524225E+01
             -0.140317184157102E-01
              0.863665547969892E+00
              0.280932057498538E+00
             -0.104068015911447E+00
             -0.239113488815124E+00
              0.779352727038060E+00
             -0.100249401822711E+01
             -0.301073693960467E-01
             -0.348783832377048E+00
             -0.673453205972379E+00
              0.182388811985379E+00
              0.432718078963966E+00
             -0.482543598305192E-01
             -0.303489742010923E-01
             -0.710271773411728E+00
              0.239524600174132E+00
             -0.255346310013667E-01
             -0.355740670892128E+00
             -0.332576223203773E+00
              0.269637009607206E+00
              0.182366400428613E-02
             -0.659152715778395E+00
             -0.181492648782913E+01
              0.106955291160765E+00
              0.230479319895170E+00
             -0.819780216035851E+00
             -0.438684794165373E+00
              0.139040933524966E+01
              0.234291649957747E+00
              0.764359458747812E+00
              0.193970221439494E+00
              0.672328016402279E+00
              0.288772329845317E-01
             -0.671289517378551E+00
             -0.229239304407077E+00
              0.858710518578216E-01
              0.532078378714185E+00
              0.123361260915609E+01
              0.830947970922923E+00
              0.491538768230280E-01
              0.188726976131293E+00
              0.103110547308135E+01
              0.479887279974836E+00
             -0.116562905728920E+01
             -0.467801908309945E+00
              0.182138883194072E+00
              0.173739139315693E+00
              0.422829516171788E+00
             -0.857984733870873E+00
              0.573434614550148E-01
              0.705776689956099E+00
              0.817259513816324E+00
             -0.705537029265495E+00
              0.667597015812600E-01
             -0.437686743368699E-01
             -0.364390275615674E+00
             -0.402885426534326E+00
             -0.177312168128194E+00
             -0.241771716785298E+00
              0.197801459060640E+00
              0.710758965734671E+00
             -0.545858150690821E+00
              0.137768311145456E+01
              0.552193149509136E+00
              0.447162750907322E+00
              0.650373986295680E+00
              0.397938669537788E+00
              0.613583807335761E+00
              0.938305253963183E+00
             -0.803718268618293E+00
              0.106506149253396E+01
             -0.193358892014379E+01
              0.527533533325553E+00
             -0.176064571615250E+01
              0.134723259572876E+01
              0.133005630434031E+01
             -0.132743492247142E+00
             -0.779441187080857E+00
             -0.737658051502810E+00
             -0.898089765156970E+00
             -0.112479229998833E+01
              0.918008739070169E+00
              0.723046688582853E+00
              0.407300642251444E+00
              0.415810526654024E+00
              0.770754970715803E+00
             -0.698977170474289E+00
             -0.232390872502022E+00
              0.902399659643066E+00
             -0.210751823136356E+00
              0.840898321237968E+00
              0.132529185270051E+01
             -0.698879842811615E-01
             -0.128680190961849E+01
              0.117320629432812E+00
              0.287680767410140E-01
             -0.173878129353534E+00
              0.495048278925871E-01
             -0.108676158168718E+01
             -0.112207652160734E+00
              0.256433437278106E+00
              0.259084910945683E+00
              0.853342063601859E+00
             -0.714067714753115E+00
              0.841405014820570E+00
             -0.644540430745901E+00
              0.476853731702012E+00
              0.747073784645114E+00
 
 BEEF-vdW xc energy contributions
           1 :   -11.6720641191416     
           2 :    9.44550021046900     
           3 :   -6.31052425474407     
           4 :    3.45179005444296     
           5 :   -1.37687897981688     
           6 :   0.155807725404928     
           7 :   0.357346559528663     
           8 :  -0.423387926070440     
           9 :   0.320693728715325     
          10 :  -0.262136397738528     
          11 :   0.324180168258964     
          12 :  -0.454211848595230     
          13 :   0.549426224869975     
          14 :  -0.541967885324489     
          15 :   0.424255345294792     
          16 :  -0.241962187639393     
          17 :   6.807499815343476E-002
          18 :   3.396007240790411E-002
          19 :  -4.685139618924872E-002
          20 :   3.029990520010628E-003
          21 :   4.192469911751395E-002
          22 :  -4.734865902725005E-002
          23 :   6.825710951002151E-003
          24 :   5.149943946361546E-002
          25 :  -8.673521146383933E-002
          26 :   7.425800398312177E-002
          27 :  -1.811586557689182E-002
          28 :  -5.667458172818129E-002
          29 :   0.113961193850301     
          30 :  -0.126482023257106     
          31 :   -1.64305021336003     
          32 :   -1.00654311714205     

     Writing output data file ./pwscf.save/
 
     init_run     :     66.53s CPU     69.20s WALL (       1 calls)
     electrons    :    555.58s CPU    604.72s WALL (       1 calls)
     forces       :     27.16s CPU     29.53s WALL (       1 calls)

     Called by init_run:
     wfcinit      :      1.99s CPU      2.07s WALL (       1 calls)
     potinit      :     55.96s CPU     57.97s WALL (       1 calls)
     hinit0       :      6.97s CPU      7.11s WALL (       1 calls)

     Called by electrons:
     c_bands      :     88.90s CPU     89.90s WALL (      16 calls)
     sum_band     :     41.70s CPU     48.13s WALL (      16 calls)
     v_of_rho     :    337.21s CPU    369.02s WALL (      17 calls)
     newd         :     15.96s CPU     22.51s WALL (      17 calls)
     PAW_pot      :      1.48s CPU      1.49s WALL (      17 calls)
     mix_rho      :    120.71s CPU    126.18s WALL (      16 calls)
     vdW_kernel   :     33.49s CPU     33.49s WALL (       1 calls)

     Called by c_bands:
     init_us_2    :      1.51s CPU      1.54s WALL (      33 calls)
     regterg      :     86.24s CPU     87.23s WALL (      16 calls)

     Called by *egterg:
     rdiaghg      :      0.01s CPU      0.02s WALL (      86 calls)
     h_psi        :     79.09s CPU     79.15s WALL (      87 calls)
     s_psi        :      1.84s CPU      1.84s WALL (      87 calls)
     g_psi        :      0.28s CPU      0.28s WALL (      70 calls)

     Called by h_psi:
     h_psi:calbec :      1.51s CPU      1.51s WALL (      87 calls)
     vloc_psi     :     75.35s CPU     75.39s WALL (      87 calls)
     add_vuspsi   :      1.80s CPU      1.80s WALL (      87 calls)

     General routines
     calbec       :      1.94s CPU      1.94s WALL (     107 calls)
     fft          :    288.30s CPU    288.33s WALL (    2932 calls)
     ffts         :     52.66s CPU     52.67s WALL (     535 calls)
     fftw         :     71.76s CPU     71.79s WALL (     724 calls)
 
     Parallel routines
 
     PWSCF        :  20m 1.21s CPU  21m57.27s WALL

 
   This run was terminated on:  16:39:40  20Dec2022            

=------------------------------------------------------------------------------=
   JOB DONE.
=------------------------------------------------------------------------------=
