
     Program PWSCF v.6.7MaX starts on 20Dec2022 at 16: 4:30 

     This program is part of the open-source Quantum ESPRESSO suite
     for quantum simulation of materials; please cite
         "P. Giannozzi et al., J. Phys.:Condens. Matter 21 395502 (2009);
         "P. Giannozzi et al., J. Phys.:Condens. Matter 29 465901 (2017);
          URL http://www.quantum-espresso.org", 
     in publications or presentations arising from this work. More details at
     http://www.quantum-espresso.org/quote

     Parallel version (MPI), running on     1 processors

     MPI processes distributed on     1 nodes
     Reading input from ch3och3-gas-ensemble.in
Warning: card &CELL ignored
Warning: card / ignored

     Current dimensions of program PWSCF are:
     Max number of different atomic species (ntypx) = 10
     Max number of k-points (npk) =  40000
     Max angular momentum in pseudopotentials (lmaxx) =  3
     file C.pbe-n-kjpaw_psl.1.0.0.UPF: wavefunction(s)  2S 2P renormalized
     file H.pbe-kjpaw_psl.1.0.0.UPF: wavefunction(s)  1S renormalized
     file O.pbe-nl-kjpaw_psl.1.0.0.UPF: wavefunction(s)  2S 2P renormalized

     **************************************************************************
     Initializing libbeef V0.1.2 with the BEEF-vdW functional.
     Citation: Wellendorff et al., PRB 85, 235149 (2012).
     **************************************************************************


     IMPORTANT: XC functional enforced from input :
     Exchange-correlation= BEEF-VDW
                           (   1   4  43  14   2   0   0)
     Any further DFT definition will be discarded
     Please, verify this is what you really want


     gamma-point specific algorithms are used

     Subspace diagonalization in iterative solution of the eigenvalue problem:
     a serial algorithm will be used

 
     G-vector sticks info
     --------------------
     sticks:   dense  smooth     PW     G-vecs:    dense   smooth      PW
     Sum       35521   35521   8897              4787775  4787775  598625
 


     bravais-lattice index     =            0
     lattice parameter (alat)  =      45.4749  a.u.
     unit-cell volume          =   76261.6444 (a.u.)^3
     number of atoms/cell      =            9
     number of atomic types    =            3
     number of electrons       =        20.00
     number of Kohn-Sham states=           14
     kinetic-energy cutoff     =      60.0000  Ry
     charge density cutoff     =     240.0000  Ry
     scf convergence threshold =      1.0E-06
     mixing beta               =       0.7000
     number of iterations used =            8  local-TF  mixing
     Exchange-correlation= BEEF-VDW
                           (   1   4  43  14   2   0   0)

     celldm(1)=  45.474852  celldm(2)=   0.000000  celldm(3)=   0.000000
     celldm(4)=   0.000000  celldm(5)=   0.000000  celldm(6)=   0.000000

     crystal axes: (cart. coord. in units of alat)
               a(1) = (   1.000000   0.000000   0.000000 )  
               a(2) = (   0.000000   0.899944   0.000000 )  
               a(3) = (   0.000000   0.000000   0.901107 )  

     reciprocal axes: (cart. coord. in units 2 pi/alat)
               b(1) = (  1.000000  0.000000  0.000000 )  
               b(2) = (  0.000000  1.111180  0.000000 )  
               b(3) = (  0.000000  0.000000  1.109746 )  


     PseudoPot. # 1 for C  read from file:
     /users/bkreitz1/quantum-espresso/potentials/C.pbe-n-kjpaw_psl.1.0.0.UPF
     MD5 check sum: a169b0ebad56f5ec0d79c4633f80bf22
     Pseudo is Projector augmented-wave + core cor, Zval =  4.0
     Generated using 'atomic' code by A. Dal Corso  v.6.7MaX
     Shape of augmentation charge: PSQ
     Using radial grid of 1073 points,  4 beta functions with: 
                l(1) =   0
                l(2) =   0
                l(3) =   1
                l(4) =   1
     Q(r) pseudized with 0 coefficients 


     PseudoPot. # 2 for H  read from file:
     /users/bkreitz1/quantum-espresso/potentials/H.pbe-kjpaw_psl.1.0.0.UPF
     MD5 check sum: ae98473e6dc62675f0d0baffdab24f65
     Pseudo is Projector augmented-wave, Zval =  1.0
     Generated using 'atomic' code by A. Dal Corso  v.6.7MaX
     Shape of augmentation charge: PSQ
     Using radial grid of  929 points,  2 beta functions with: 
                l(1) =   0
                l(2) =   0
     Q(r) pseudized with 0 coefficients 


     PseudoPot. # 3 for O  read from file:
     /users/bkreitz1/quantum-espresso/potentials/O.pbe-nl-kjpaw_psl.1.0.0.UPF
     MD5 check sum: eef08af8b58d9ec80f8fdb78829eb7cf
     Pseudo is Projector augmented-wave + core cor, Zval =  6.0
     Generated using 'atomic' code by A. Dal Corso  v.6.7MaX
     Shape of augmentation charge: PSQ
     Using radial grid of 1095 points,  4 beta functions with: 
                l(1) =   0
                l(2) =   0
                l(3) =   1
                l(4) =   1
     Q(r) pseudized with 0 coefficients 


     atomic species   valence    mass     pseudopotential
        C              4.00    12.01100     C ( 1.00)
        H              1.00     1.00800     H ( 1.00)
        O              6.00    15.99900     O ( 1.00)

     No symmetry found



   Cartesian axes

     site n.     atom                  positions (alat units)
         1           C   tau(   1) = (   0.5483736   0.4393005   0.4421895  )
         2           C   tau(   2) = (   0.4502570   0.4345763   0.4412476  )
         3           H   tau(   3) = (   0.5509987   0.4270198   0.4860957  )
         4           H   tau(   4) = (   0.5843504   0.4233437   0.4198639  )
         5           H   tau(   5) = (   0.5482072   0.4849035   0.4397116  )
         6           H   tau(   6) = (   0.4458758   0.4799529   0.4386270  )
         7           H   tau(   7) = (   0.4480848   0.4222755   0.4851852  )
         8           O   tau(   8) = (   0.5005207   0.4162748   0.4161433  )
         9           H   tau(   9) = (   0.4162698   0.4150799   0.4190315  )

     number of k points=     1  Gaussian smearing, width (Ry)=  0.0050
                       cart. coord. in units 2pi/alat
        k(    1) = (   0.0000000   0.0000000   0.0000000), wk =   2.0000000

     Dense  grid:  2393888 G-vectors     FFT dimensions: ( 225, 216, 216)

     Estimated max dynamical RAM per process >       4.17 GB

     Initial potential from superposition of free atoms

     starting charge   19.99986, renormalised to   20.00000

     negative rho (up, down):  1.611E-02 0.000E+00


     %%%%%%%%%%%%%%%%%%%%%%%%%%%%%%%%%%%%%%%%%%%%%%%%%%%%%%%%%%%%%%%%%%%%%%%%
     %                                                                      %
     % You are using vdW-DF, which was implemented by the Thonhauser group. %
     % Please cite the following two papers that made this development      %
     % possible and the two reviews that describe the various versions:     %
     %                                                                      %
     %   T. Thonhauser et al., PRL 115, 136402 (2015).                      %
     %   T. Thonhauser et al., PRB 76, 125112 (2007).                       %
     %   K. Berland et al., Rep. Prog. Phys. 78, 066501 (2015).             %
     %   D.C. Langreth et al., J. Phys.: Condens. Matter 21, 084203 (2009). %
     %                                                                      %
     %                                                                      %
     % If you are calculating the stress with vdW-DF, please also cite:     %
     %                                                                      %
     %   R. Sabatini et al., J. Phys.: Condens. Matter 24, 424209 (2012).   %
     %                                                                      %
     %%%%%%%%%%%%%%%%%%%%%%%%%%%%%%%%%%%%%%%%%%%%%%%%%%%%%%%%%%%%%%%%%%%%%%%%


     Starting wfcs are   18 randomized atomic wfcs
     Checking if some PAW data can be deallocated... 

     total cpu time spent up to now is       80.7 secs

     Self-consistent Calculation

     iteration #  1     ecut=    60.00 Ry     beta= 0.70
     Davidson diagonalization with overlap
     ethr =  1.00E-02,  avg # of iterations =  5.0

     negative rho (up, down):  1.185E-02 0.000E+00

     total cpu time spent up to now is      126.6 secs

     total energy              =     -87.86020572 Ry
     estimated scf accuracy    <       0.91962992 Ry

     iteration #  2     ecut=    60.00 Ry     beta= 0.70
     Davidson diagonalization with overlap
     ethr =  4.60E-03,  avg # of iterations =  2.0

     negative rho (up, down):  7.755E-03 0.000E+00

     total cpu time spent up to now is      169.5 secs

     total energy              =     -87.77528390 Ry
     estimated scf accuracy    <       0.24645291 Ry

     iteration #  3     ecut=    60.00 Ry     beta= 0.70
     Davidson diagonalization with overlap
     ethr =  1.23E-03,  avg # of iterations =  5.0

     negative rho (up, down):  4.603E-03 0.000E+00

     total cpu time spent up to now is      215.1 secs

     total energy              =     -87.80372701 Ry
     estimated scf accuracy    <       0.04039122 Ry

     iteration #  4     ecut=    60.00 Ry     beta= 0.70
     Davidson diagonalization with overlap
     ethr =  2.02E-04,  avg # of iterations =  5.0

     negative rho (up, down):  3.465E-02 0.000E+00

     total cpu time spent up to now is      262.5 secs

     total energy              =     -87.79611033 Ry
     estimated scf accuracy    <       0.02205749 Ry

     iteration #  5     ecut=    60.00 Ry     beta= 0.70
     Davidson diagonalization with overlap
     c_bands:  1 eigenvalues not converged
     ethr =  1.10E-04,  avg # of iterations = 20.0

     negative rho (up, down):  1.203E-01 0.000E+00

     total cpu time spent up to now is      315.5 secs

     total energy              =     -87.79672298 Ry
     estimated scf accuracy    <       0.01024012 Ry

     iteration #  6     ecut=    60.00 Ry     beta= 0.70
     Davidson diagonalization with overlap
     ethr =  5.12E-05,  avg # of iterations = 13.0

     negative rho (up, down):  1.543E-01 0.000E+00

     total cpu time spent up to now is      366.8 secs

     total energy              =     -87.79778636 Ry
     estimated scf accuracy    <       0.00803995 Ry

     iteration #  7     ecut=    60.00 Ry     beta= 0.70
     Davidson diagonalization with overlap
     ethr =  4.02E-05,  avg # of iterations =  2.0

     negative rho (up, down):  1.088E-01 0.000E+00

     total cpu time spent up to now is      411.3 secs

     total energy              =     -87.79526340 Ry
     estimated scf accuracy    <       0.00321376 Ry

     iteration #  8     ecut=    60.00 Ry     beta= 0.70
     Davidson diagonalization with overlap
     ethr =  1.61E-05,  avg # of iterations =  6.0

     negative rho (up, down):  1.184E-01 0.000E+00

     total cpu time spent up to now is      461.1 secs

     total energy              =     -87.79599273 Ry
     estimated scf accuracy    <       0.00680013 Ry

     iteration #  9     ecut=    60.00 Ry     beta= 0.70
     Davidson diagonalization with overlap
     ethr =  1.61E-05,  avg # of iterations =  2.0

     negative rho (up, down):  1.046E-01 0.000E+00

     total cpu time spent up to now is      505.4 secs

     total energy              =     -87.79523245 Ry
     estimated scf accuracy    <       0.00210106 Ry

     iteration # 10     ecut=    60.00 Ry     beta= 0.70
     Davidson diagonalization with overlap
     ethr =  1.05E-05,  avg # of iterations =  9.0

     negative rho (up, down):  7.211E-02 0.000E+00

     total cpu time spent up to now is      553.9 secs

     total energy              =     -87.79482057 Ry
     estimated scf accuracy    <       0.00049416 Ry

     iteration # 11     ecut=    60.00 Ry     beta= 0.70
     Davidson diagonalization with overlap
     ethr =  2.47E-06,  avg # of iterations = 12.0

     negative rho (up, down):  5.274E-02 0.000E+00

     total cpu time spent up to now is      606.0 secs

     total energy              =     -87.79476029 Ry
     estimated scf accuracy    <       0.00050568 Ry

     iteration # 12     ecut=    60.00 Ry     beta= 0.70
     Davidson diagonalization with overlap
     c_bands:  1 eigenvalues not converged
     ethr =  2.47E-06,  avg # of iterations = 20.0

     negative rho (up, down):  4.293E-02 0.000E+00

     total cpu time spent up to now is      657.6 secs

     total energy              =     -87.79465529 Ry
     estimated scf accuracy    <       0.00031001 Ry

     iteration # 13     ecut=    60.00 Ry     beta= 0.70
     Davidson diagonalization with overlap
     ethr =  1.55E-06,  avg # of iterations = 20.0

     negative rho (up, down):  3.142E-02 0.000E+00

     total cpu time spent up to now is      709.6 secs

     total energy              =     -87.79474245 Ry
     estimated scf accuracy    <       0.00003851 Ry

     iteration # 14     ecut=    60.00 Ry     beta= 0.70
     Davidson diagonalization with overlap
     ethr =  1.93E-07,  avg # of iterations = 13.0

     negative rho (up, down):  2.768E-02 0.000E+00

     total cpu time spent up to now is      757.8 secs

     total energy              =     -87.79474240 Ry
     estimated scf accuracy    <       0.00001527 Ry

     iteration # 15     ecut=    60.00 Ry     beta= 0.70
     Davidson diagonalization with overlap
     ethr =  7.63E-08,  avg # of iterations =  6.0

     negative rho (up, down):  2.386E-02 0.000E+00

     total cpu time spent up to now is      801.5 secs

     total energy              =     -87.79476129 Ry
     estimated scf accuracy    <       0.00000613 Ry

     iteration # 16     ecut=    60.00 Ry     beta= 0.70
     Davidson diagonalization with overlap
     ethr =  3.07E-08,  avg # of iterations =  6.0

     negative rho (up, down):  2.318E-02 0.000E+00

     total cpu time spent up to now is      845.6 secs

     total energy              =     -87.79476150 Ry
     estimated scf accuracy    <       0.00000206 Ry

     iteration # 17     ecut=    60.00 Ry     beta= 0.70
     Davidson diagonalization with overlap
     ethr =  1.03E-08,  avg # of iterations =  1.0

     negative rho (up, down):  2.242E-02 0.000E+00

     total cpu time spent up to now is      877.4 secs

     End of self-consistent calculation

          k = 0.0000 0.0000 0.0000 (299313 PWs)   bands (ev):

   -26.0786 -18.1828 -16.0709 -11.9678 -11.7226 -11.6460  -9.9323  -9.4913
    -7.9027  -6.2131  -0.9790  -0.4450  -0.3129  -0.2755

     the Fermi energy is    -3.3988 ev

!    total energy              =     -87.79475830 Ry

     total all-electron energy =      -312.169822 Ry
     estimated scf accuracy    <       0.00000079 Ry
     smearing contrib. (-TS)   =      -0.00000000 Ry
     internal energy E=F+TS    =     -87.79475830 Ry

     The total energy is F=E-TS. E is the sum of the following terms:
     one-electron contribution =    -238.59508732 Ry
     hartree contribution      =     122.56169852 Ry
     xc contribution           =     -21.97355282 Ry
     ewald contribution        =      73.43273543 Ry
     one-center paw contrib.   =     -23.22055211 Ry

     convergence has been achieved in  17 iterations

     negative rho (up, down):  2.242E-02 0.000E+00

     Forces acting on atoms (cartesian axes, Ry/au):

     atom    1 type  1   force =    -0.00024419   -0.00018514   -0.00103583
     atom    2 type  1   force =     0.00345556    0.00268592    0.00514650
     atom    3 type  2   force =    -0.00020761    0.00010779   -0.00072232
     atom    4 type  2   force =     0.00032401   -0.00013058    0.00071576
     atom    5 type  2   force =    -0.00012634   -0.00049385    0.00047916
     atom    6 type  2   force =     0.00020133   -0.00010171   -0.00011390
     atom    7 type  2   force =     0.00097549    0.00068374   -0.00027702
     atom    8 type  3   force =    -0.00029408    0.00028724    0.00062286
     atom    9 type  2   force =    -0.00408417   -0.00285341   -0.00481521

     Total force =     0.009931     Total SCF correction =     0.000436

     negative rho (up, down):  2.242E-02 0.000E+00

     negative rho (up, down):  2.242E-02 0.000E+00

     negative rho (up, down):  2.242E-02 0.000E+00

     negative rho (up, down):  2.242E-02 0.000E+00

     negative rho (up, down):  2.242E-02 0.000E+00

     negative rho (up, down):  2.242E-02 0.000E+00

     negative rho (up, down):  2.242E-02 0.000E+00

     negative rho (up, down):  2.242E-02 0.000E+00

     negative rho (up, down):  2.242E-02 0.000E+00

     negative rho (up, down):  2.242E-02 0.000E+00

     negative rho (up, down):  2.242E-02 0.000E+00

     negative rho (up, down):  2.242E-02 0.000E+00

     negative rho (up, down):  2.242E-02 0.000E+00

     negative rho (up, down):  2.242E-02 0.000E+00

     negative rho (up, down):  2.242E-02 0.000E+00

     negative rho (up, down):  2.242E-02 0.000E+00

     negative rho (up, down):  2.242E-02 0.000E+00

     negative rho (up, down):  2.242E-02 0.000E+00

     negative rho (up, down):  2.242E-02 0.000E+00

     negative rho (up, down):  2.242E-02 0.000E+00

     negative rho (up, down):  2.242E-02 0.000E+00

     negative rho (up, down):  2.242E-02 0.000E+00

     negative rho (up, down):  2.242E-02 0.000E+00

     negative rho (up, down):  2.242E-02 0.000E+00

     negative rho (up, down):  2.242E-02 0.000E+00

     negative rho (up, down):  2.242E-02 0.000E+00

     negative rho (up, down):  2.242E-02 0.000E+00

     negative rho (up, down):  2.242E-02 0.000E+00

     negative rho (up, down):  2.242E-02 0.000E+00

     negative rho (up, down):  2.242E-02 0.000E+00

     negative rho (up, down):  2.242E-02 0.000E+00

     negative rho (up, down):  2.242E-02 0.000E+00

     negative rho (up, down):  2.242E-02 0.000E+00

     negative rho (up, down):  2.242E-02 0.000E+00
 BEEFens 2000 ensemble energies
             -0.165330055325281E+01
             -0.536080865548181E-01
             -0.333648326411775E+00
              0.112609439437702E+01
             -0.531627113853804E+00
             -0.396349453420435E+00
             -0.122443370074378E+01
             -0.249647886172930E+01
             -0.871624621607312E+00
             -0.939609577927646E+00
             -0.913368938073697E+00
              0.146758369781316E+00
              0.883251029229490E-01
             -0.131632401222485E+00
              0.102922820981560E+00
              0.120205351302313E+01
             -0.510689030303863E+00
             -0.246254445391425E+00
              0.610125908076153E+00
             -0.282278982052868E+01
              0.143656227824836E+01
             -0.474938411440185E+00
             -0.165082274849358E+00
             -0.224319897862473E+00
              0.787790628639851E-01
             -0.138206692278883E+00
              0.225332335758135E+01
             -0.584323713259360E+00
             -0.209670602921452E+00
             -0.144036971074713E+01
              0.174402760621907E+01
             -0.978289939257264E-01
             -0.106841474212128E+01
              0.455195704868751E+00
             -0.711638921706994E-01
              0.744351823086646E+00
              0.490653556686897E-01
             -0.174221084035757E-01
              0.966885561599671E+00
             -0.255150664916275E+01
              0.140530523269677E+01
              0.303401373148975E+00
             -0.318986198012496E+00
             -0.756045060853530E+00
              0.308400951341365E+00
             -0.450859782542391E+00
              0.130470165525590E+01
              0.894242412916023E+00
             -0.474505840013194E+00
             -0.816293934746735E+00
             -0.779251616701776E+00
             -0.953312136155481E+00
              0.573301586456238E+00
             -0.134995837871512E+01
              0.418798537822770E+00
              0.155566564295312E+01
              0.192626682489465E+01
              0.808685327179209E+00
              0.434677066319843E+00
              0.833479137613901E+00
              0.232610061543844E+01
              0.424311722472131E+00
             -0.140930617973542E+01
             -0.239459495287070E+00
             -0.760057081396107E+00
              0.159641550293977E+01
             -0.184512902920126E+01
             -0.149495361932885E+01
             -0.863407940334307E+00
             -0.492040278536335E+00
             -0.995167070448780E+00
              0.704735327638291E+00
              0.346410244998959E+00
              0.410898228157882E+00
             -0.976201250011743E+00
             -0.909110904559271E+00
             -0.150366152067903E+01
              0.803443678636297E+00
             -0.875062553803124E+00
              0.812598512405660E+00
             -0.204779977735666E+00
             -0.724205127220726E+00
             -0.128398550697313E+01
             -0.380682292967016E+00
             -0.438096649607875E+00
             -0.383849195607549E+00
              0.988659268515896E+00
              0.198927752490725E+01
             -0.116610552074951E+01
             -0.203741178246684E+01
             -0.465346460104287E+00
              0.278192172660483E+01
             -0.141813511512796E+01
              0.779893558502399E+00
             -0.300622107289918E+00
             -0.151060634749870E+01
              0.707349721070685E+00
              0.766938977139553E+00
             -0.370138897632416E+00
              0.711945019862569E+00
             -0.631984323581886E+00
             -0.157074543514139E+01
              0.257863403059845E+01
              0.116002663733957E+01
              0.529832581153537E+00
              0.319878974764864E+00
              0.589450537528327E+00
              0.207322124637967E+01
             -0.680006119800000E+00
              0.592686826493947E-01
             -0.353073057854510E+01
              0.462406880484854E+00
             -0.168755987392674E+01
              0.312586288190878E+00
              0.551189703302362E+00
             -0.948644238158685E+00
             -0.127234198532302E+01
              0.596982597625875E-01
             -0.783747640047919E+00
              0.114651534013551E+01
             -0.114174149232691E+01
             -0.222270902915071E+00
             -0.982437294846981E+00
             -0.860941419303831E-01
              0.127594253378747E+00
              0.585454712687456E+00
             -0.146408002470757E-01
             -0.156347857469708E+00
              0.170572896243290E+01
              0.234551758120520E+01
              0.126406994134240E+01
              0.164950397226496E+01
             -0.342209792549745E+00
              0.202943495438484E+00
              0.131266867143310E+01
              0.144665198118609E+00
             -0.194218174024998E+01
             -0.112805373399805E+01
             -0.123442371743432E+01
             -0.750995762737865E+00
              0.638843438750500E+00
             -0.310807155425899E+01
             -0.299617376188783E+00
              0.118848031877166E+01
             -0.103450057894516E+01
             -0.728955351552496E+00
              0.147979044786945E+01
              0.125704896885370E+01
             -0.710283038534044E+00
              0.852365292036620E+00
             -0.637154114916012E+00
              0.971441441936625E+00
              0.188052253491056E+00
              0.262382914743601E+00
             -0.208215478761616E+01
             -0.121838347912091E+01
             -0.225523067668455E+00
             -0.876697179539172E-01
             -0.109668306512965E+01
              0.283534768487766E+01
             -0.283026311750058E+00
             -0.670956262204080E+00
              0.100950588582671E+01
             -0.113865128418333E+01
             -0.967242085974497E+00
              0.823214963432484E+00
              0.310564262993269E+00
              0.261963274514939E+00
              0.413538455317251E+00
             -0.271772197403377E+00
              0.236572666566017E+00
              0.149103775924972E+01
             -0.689490957930995E+00
              0.567117333224031E+00
              0.225852788110929E+01
              0.797394296707668E+00
             -0.102481073558096E+00
             -0.523301046791969E+00
              0.395984340741423E+01
             -0.647720767827908E+00
              0.100003464907960E+01
              0.799419097047153E+00
              0.700148992729109E+00
              0.237918057088936E+01
              0.116910615432885E+01
             -0.143500166486421E+00
              0.642038488994793E+00
              0.133147352201623E+01
              0.986125021545601E+00
             -0.157506531150790E+01
              0.240290868340416E+01
             -0.219584565692978E+01
             -0.267861439220585E+00
              0.143096635789901E+01
              0.436357911728792E+00
              0.135690863245301E+00
              0.699232707765779E+00
              0.381144718225589E+00
              0.829409878438021E+00
             -0.159256899189084E+01
              0.863236215692531E-01
             -0.586803198826949E+00
             -0.145875823131735E+00
             -0.685727176872923E-01
             -0.337408251684972E+00
             -0.164545499669098E+00
              0.211922693737683E+01
             -0.117365500603126E+00
             -0.735486944694097E+00
             -0.266501600560629E-01
              0.367071783625844E+00
             -0.164419239832668E+01
             -0.141830090900498E+01
             -0.856273644522080E+00
             -0.160287361679275E+01
             -0.489092169717273E+00
             -0.102851128172167E+01
              0.465348362614902E+00
              0.556789851249238E-01
             -0.335878530642408E+00
             -0.207984321695666E+00
              0.124353220543755E+00
             -0.343466653181245E+00
              0.164707177176441E+01
             -0.224650169855097E+01
             -0.333564134716974E+00
             -0.347079535451594E+00
              0.387164656583197E+00
              0.547865449101431E+00
             -0.130717697955057E+01
             -0.306360910504067E+00
              0.114365513622346E+01
             -0.497454081643267E+00
              0.335493045527658E+00
              0.854954681117573E+00
             -0.120654273713452E-01
              0.293839169107349E+01
             -0.270601991363744E+00
             -0.886051981445636E+00
              0.629219575776219E-03
             -0.724248423394448E+00
              0.138907948427654E+01
             -0.124678481505951E+01
              0.358630099018601E+00
              0.125761705222216E+01
             -0.334057105997511E+00
              0.299825799638499E+01
              0.325434210538373E+01
             -0.180655687454730E+01
              0.146181260443941E+01
              0.608224679493086E+00
             -0.143663346638786E+01
              0.454413457656837E+00
              0.110297299646011E+01
              0.120577502710955E+01
              0.119412537365091E+00
              0.462623026196500E+00
              0.191145476664351E+01
             -0.587894185380410E+00
              0.221691072893429E+00
              0.171177007736258E+01
             -0.917997581746772E+00
             -0.626262594624150E+00
              0.152242009232282E+01
              0.788676545162244E+00
              0.196524109382829E+01
              0.876071634717585E+00
              0.357780214016492E+00
              0.635899874477818E+00
              0.109149981073307E+01
             -0.134043016556518E+01
              0.198698241556436E+00
              0.705531022450656E+00
              0.276583170641967E+00
              0.619302252915353E+00
             -0.158874142371526E+01
              0.815612572357772E+00
             -0.110004026994049E+01
             -0.790897201312048E+00
              0.496200276988195E+00
             -0.214565039209378E+00
              0.153704188949772E+01
             -0.352649248752812E+00
              0.750784876903486E+00
              0.757475811927923E+00
              0.196694234349117E+01
              0.132654845836219E+01
              0.131490608396815E+01
             -0.675660710287938E-01
             -0.293024725838912E+00
             -0.752692422171318E+00
              0.209902980856858E+01
              0.211305281172887E+01
              0.100884633248229E+01
             -0.732583668934662E+00
              0.125943937375179E+01
              0.100983951196367E-01
              0.433161333317997E+00
              0.177988537773653E+01
             -0.732307391890852E-01
             -0.263981037274870E+00
             -0.531147839534153E+00
             -0.157313924477832E+01
              0.246332219482579E+01
              0.131085914890595E+01
             -0.166514799222689E+01
             -0.565163869422170E+00
              0.639205096573452E+00
             -0.275410712453279E+00
              0.168273485761496E+01
              0.399671302647942E+00
              0.207400512700559E+01
              0.776283619349500E+00
             -0.593565421955493E+00
              0.460984565723189E+00
             -0.184359460562413E+00
             -0.636701949697764E+00
              0.437953756191819E+00
              0.410708792241085E+00
              0.229816443131776E+01
              0.194167264901950E+01
              0.146183214536187E+01
              0.170979065311354E+01
              0.172815251537818E+00
             -0.651138096382269E+00
              0.335278619309696E+00
             -0.852289723872460E+00
             -0.144993451291415E+01
             -0.145069428740323E+01
             -0.829262136281635E+00
             -0.275996303947588E+01
             -0.955228326877458E+00
             -0.221465219490696E+01
              0.523854281178665E+00
             -0.115014923800207E+01
              0.130888483418015E+01
             -0.251875043818467E+01
             -0.756242026666934E+00
              0.984673260779727E+00
              0.557427462979890E+00
             -0.231902023550585E+01
              0.134857374855355E+01
             -0.735075567900870E+00
              0.141624172841669E+01
             -0.710376292571287E+00
             -0.200801400425396E+01
              0.462006526031195E+00
             -0.169104360042981E+01
             -0.787090073936447E-01
             -0.322686276755242E-01
              0.106451385259031E+01
              0.321223180712007E+01
             -0.109828498103028E+01
             -0.969217206741991E+00
             -0.173760853188034E+00
             -0.196883408091266E+00
             -0.204630565462221E+01
             -0.145030842308375E+01
              0.127765894638998E+01
             -0.459169185190683E+00
              0.571758573298840E+00
             -0.125777284526752E+01
             -0.409498238109991E+00
             -0.106702816211084E+01
              0.122749954281316E+01
              0.324843047405906E+00
             -0.623943951319569E+00
             -0.456207853882209E+00
              0.338860224847846E+00
             -0.199696445325047E+00
              0.102252034040183E+01
             -0.679044779293587E+00
              0.288712869769794E+00
              0.854698898540579E+00
              0.320292046341905E+00
             -0.609182738962907E+00
              0.395933202694570E+01
              0.151874179752028E+01
              0.264126704166822E+00
              0.155537305413418E+00
             -0.154469314237395E+01
              0.849470402628743E+00
             -0.199865734352281E+01
             -0.884904278884278E+00
             -0.153077252379930E+01
             -0.456998841845772E+00
              0.151320084743162E+01
             -0.148267422654295E+01
              0.679511260444050E+00
             -0.103626259781166E+00
              0.373097122969686E-01
             -0.794008729876793E+00
             -0.105486669293887E+01
             -0.157473631504583E+00
             -0.847174062273334E+00
             -0.582959442626485E+00
             -0.101005352017679E+01
             -0.133801166749202E+00
             -0.812347506737086E+00
             -0.124416278843582E+01
              0.553299646405492E+00
             -0.313876346143622E+00
              0.609120433244031E+00
              0.221443457054642E+00
             -0.193087498278494E+01
             -0.130300341887785E+01
             -0.128614914142347E+01
              0.826616145920134E+00
             -0.172781199727548E+00
             -0.158301124489743E+01
              0.144575403383322E+01
             -0.109205987384401E+01
              0.150040985485238E+01
             -0.794988159016981E+00
             -0.125442863532676E+01
              0.636203945498249E+00
             -0.186749293251009E+01
             -0.804762607847164E+00
              0.150077861093487E+01
              0.519176356358583E+00
             -0.110610408627821E+01
              0.142517769732989E+01
             -0.417025774045296E+00
             -0.945981494989562E+00
             -0.768310565786830E+00
             -0.133764784186346E+01
              0.655019174362608E+00
             -0.222310825401214E+01
             -0.195480130985603E+01
             -0.199334836523855E+00
             -0.741303035811356E+00
             -0.155076298851031E+01
              0.195563246873758E+01
              0.352953895634851E+01
             -0.551008033967340E+00
             -0.915509006112103E-01
             -0.154745612159977E+01
              0.169189486283757E+01
              0.564778005890426E+00
             -0.526481986655973E+00
             -0.930032667428701E+00
              0.371602107842425E+00
             -0.153733068059321E+01
             -0.279468093613414E+00
             -0.221557168015627E+01
              0.868707026728043E+00
              0.297427680458791E+00
             -0.150066096954427E+00
             -0.292401480701804E+00
             -0.107104582773739E+01
             -0.334123708823183E+00
              0.349846598938851E+01
             -0.398182134209208E+00
             -0.123924296694506E+01
             -0.176975346120777E+01
              0.359816239246204E+00
             -0.975864746109701E+00
              0.250450688465114E+00
              0.856469857081565E+00
              0.119168613460775E+00
              0.926003493867776E+00
              0.465526812349355E+00
              0.150291063861687E+01
              0.643254864582982E+00
             -0.931704125266363E+00
              0.139208704286549E+01
              0.883298152601790E+00
              0.326656774473448E+00
              0.941686596968640E+00
             -0.799877681799554E+00
              0.182642311911103E+01
              0.667447235781250E+00
             -0.891893660015176E+00
             -0.142789548095389E+00
             -0.419392364177000E+00
              0.396002211768147E+00
             -0.666719228929137E+00
             -0.302029050958436E+00
             -0.332622881301511E+00
              0.207944750401652E+01
              0.149674494408159E+01
             -0.166388694461957E+01
             -0.201879594009740E+00
             -0.128863677734892E+01
             -0.338406528249143E+00
             -0.543800480398409E+00
              0.287112103519322E+00
             -0.936968102966639E-01
             -0.725504315491468E+00
              0.432173913814606E+00
             -0.237162717379284E+00
             -0.187849918067269E+00
              0.223912108826496E+01
              0.389343072753859E+00
             -0.213158845951588E+01
             -0.981470397330391E+00
              0.245252785855163E+01
              0.600150735982172E+00
             -0.211799067684986E+00
              0.282277601266480E+01
             -0.439241134219357E+00
             -0.194346168036052E+00
             -0.304523211747671E+00
              0.409594261830035E+00
              0.845189906342321E+00
              0.652039148904247E-01
              0.731330009002681E+00
             -0.287053103890273E+00
             -0.101694727570450E+01
             -0.996294121205314E+00
             -0.124475930453566E+01
              0.104137464688305E+01
              0.383963335402322E+00
              0.969583505670108E+00
              0.410104781227807E+00
              0.231280229302567E+01
              0.520142349661650E+00
             -0.196056585041930E+01
             -0.843554356815426E+00
              0.825300695244557E-01
             -0.717578700359216E+00
              0.163116536245937E+01
             -0.417116960339406E+00
              0.441962188882664E+00
              0.141970535464934E+01
             -0.207930950324264E+01
              0.379026396692942E+01
              0.499982523576475E+00
              0.618487064321565E+00
              0.975454992673861E+00
              0.964853411800970E-01
             -0.617231615903915E-01
              0.830891223444937E+00
             -0.892586644403490E+00
              0.221791231113617E+01
              0.193828699677808E+01
             -0.991858172000083E+00
              0.446605004964448E+00
              0.186139837094520E+01
             -0.559571344432952E+00
              0.522204445690863E+00
              0.851661917346671E+00
              0.107563973627990E+01
             -0.190704781629298E+01
             -0.153026808238437E+00
             -0.694785993373011E+00
             -0.163198370778035E+00
             -0.176566866357047E+00
              0.171517749545222E+00
             -0.343320844981255E+00
             -0.771434586113436E+00
              0.418801053904432E+00
              0.165553612013433E+00
              0.136955874155772E+01
             -0.118429644410859E+01
              0.116499670721411E+01
              0.129283573177490E+01
             -0.245511117841442E+00
              0.192722960886916E+01
             -0.172683446547021E+01
             -0.265124202789777E+01
             -0.195148672763761E+00
             -0.175557749233292E+00
              0.617953164660179E-02
              0.198872443381974E+01
             -0.389019184278379E-01
              0.109225282065466E+01
              0.152306544403564E+01
              0.100069815951408E+01
             -0.140456258927991E+00
              0.153652152321862E+01
             -0.433782321369645E+00
             -0.100109709892701E+01
             -0.938061153090947E+00
              0.258832914855545E+00
              0.919169425444677E+00
             -0.727656714304477E-01
              0.874546136151645E+00
              0.151671041294277E-01
              0.143724567009779E+01
              0.433480186813562E+00
              0.197647646205310E+00
              0.246511765702273E-01
              0.759398343016350E+00
              0.105795320769544E+01
              0.390273269264170E+00
             -0.902400315906586E-01
             -0.138961902014228E+01
              0.772583672167956E+00
              0.534113771518308E+00
              0.859939812872289E+00
              0.784935865064129E+00
              0.933263964441344E+00
             -0.238717207734265E+00
              0.865791177836632E+00
             -0.751070999163503E+00
             -0.502848328534977E-01
             -0.135583895068383E+01
             -0.901839770473556E+00
              0.111321570064361E+01
             -0.226711173572990E+01
              0.630256256384106E+00
              0.353627951920849E+00
              0.221223990846683E+01
             -0.358873683913132E+00
              0.837766738472777E+00
             -0.299926239080790E+00
             -0.127000961138132E+01
             -0.170732672560590E+01
             -0.381183801161491E+00
             -0.234228657567283E+01
              0.223680326392715E+00
             -0.542094089073799E+00
              0.841717863080286E+00
              0.605111045233604E+00
             -0.731209760237759E+00
             -0.767993962365527E+00
              0.110696731928199E+01
             -0.145137258145551E+01
             -0.344228128189641E+00
             -0.418687954088682E+00
              0.676178945409009E+00
              0.109485597222283E+00
              0.993727892545091E-01
             -0.393586641206519E+00
              0.137581583877754E+01
             -0.150798039533336E+01
              0.191895136529491E+00
              0.153684254189888E+01
             -0.929722117607883E+00
              0.892551963603259E-01
              0.316112675801978E-01
             -0.169188874989107E+01
             -0.100338976589732E+01
             -0.546881216702867E-01
              0.790519300800580E+00
              0.878624787103770E+00
              0.122479028530191E+00
             -0.294019822722088E+00
              0.448492873070540E+00
             -0.104593028646052E+01
             -0.116511639481445E+00
             -0.135298567472874E+01
             -0.670045027532587E+00
              0.129106613341860E+01
             -0.782468153672085E+00
              0.179226619973016E+01
             -0.588197697882782E+00
              0.871240579988646E+00
              0.654503810693496E+00
             -0.153816299124128E+01
             -0.668537158499521E+00
              0.240360701875238E+00
             -0.105486017099517E+01
             -0.106665114919954E+01
             -0.227580444953734E+01
             -0.143472487670750E+01
             -0.127721538762116E+01
             -0.116514413271183E+01
              0.139260405510564E-01
              0.624558818583479E+00
              0.280447684068998E+00
              0.697446750888179E+00
             -0.150694823643124E+01
              0.330948771733624E+00
              0.708412730716237E+00
             -0.177109040337816E+01
             -0.147193628845546E+01
             -0.988325399261184E+00
             -0.831093304658888E+00
              0.385608667851837E+00
             -0.800329202338510E-01
             -0.109626869274115E+01
              0.737255483893236E+00
             -0.580486402104876E+00
              0.134774320415098E+01
             -0.225473249599978E+01
              0.162735448540997E+01
             -0.277667767411617E+00
             -0.113063366746160E+01
             -0.718903223198056E+00
             -0.256989181630063E-01
              0.125839653348537E+01
             -0.179185667607100E+01
             -0.329900627495846E+00
             -0.421624845490798E+00
              0.106362206471710E+01
              0.205099942700729E+01
             -0.256725764873782E+01
              0.236114730783239E+01
              0.100793588699147E+01
             -0.196401142283202E+01
             -0.814779900572859E+00
              0.202109343785101E+01
              0.146132054796726E+01
             -0.533105885352354E+00
             -0.191148089067838E+00
              0.465053215966144E+00
              0.199207801084005E+01
             -0.152868496121464E+01
              0.339687149505043E+00
             -0.190187017176692E+00
              0.694130766599551E+00
             -0.180689971964190E+01
             -0.687210887391925E-01
             -0.703062063192705E+00
              0.124574721863524E+01
              0.990024067276796E+00
             -0.228059688344839E+01
             -0.121938097676089E+01
             -0.534760018191465E+00
             -0.111147306971024E+01
             -0.330006262466200E+00
             -0.478249256057054E+00
              0.117086867486714E+01
              0.112240209296976E+01
             -0.576398024070404E-01
             -0.111638188467367E+01
             -0.220179322343195E+01
              0.129329405647820E+01
             -0.119194155385965E+01
             -0.952412392992755E+00
              0.194099686921782E+00
             -0.944878133329712E+00
             -0.104092993449625E+01
             -0.797834040184036E+00
             -0.130578116168648E+01
             -0.619009931112757E+00
             -0.128092187323952E+01
              0.142693683128011E+01
              0.153266474004998E+01
             -0.268596015508329E+00
             -0.546168009946461E+00
              0.830124803993009E-01
              0.108962112464004E+01
             -0.219542301491264E+01
             -0.613432709462701E+00
              0.128826540952156E+01
              0.181919362899545E+01
             -0.271260750755349E+00
              0.283346812422735E+00
              0.134290718404388E+01
              0.389049875756388E+00
              0.274389638421280E-01
             -0.997151188934428E+00
              0.378204287062712E+00
             -0.845387455260032E+00
             -0.226110303911420E+00
             -0.538285904985514E+00
             -0.372045753881547E+00
              0.606139191925219E+00
              0.204277691402650E+01
             -0.185520520309794E+00
              0.516288313935522E-01
             -0.235256990938787E+01
             -0.467721455036916E+00
             -0.926488088355489E+00
             -0.482184631639448E-02
             -0.119284486572941E+01
              0.229876264361023E+01
              0.223869879378288E+01
              0.483271187478384E+00
             -0.584749802300714E+00
              0.457987131705496E+00
              0.539134923750671E+00
             -0.118115929607659E+01
             -0.219649684756565E+00
              0.485878435073404E+00
              0.324378964278936E+00
              0.131143751853273E+01
              0.102709476293243E+01
             -0.548326280592066E+00
              0.575777723702996E+00
             -0.249895599816099E+01
             -0.630148242787574E-01
              0.231393886809167E+01
              0.474912833210261E+00
             -0.560210280403819E-01
              0.690670335784720E+00
             -0.603858190043525E+00
              0.226879109686737E+01
             -0.503154779151341E+00
              0.200428762297476E+01
              0.977185496919821E+00
             -0.114107277078908E+01
              0.849357404902606E+00
             -0.720369200723298E+00
             -0.174349949360407E+01
             -0.207030285967566E+00
             -0.140110255123473E+01
             -0.134520452255029E+01
             -0.387156356918750E-01
              0.951632308653789E+00
             -0.338880353261465E+00
             -0.801358505454626E+00
              0.186494418769165E+00
             -0.169139832243677E+01
             -0.914878263363212E-01
             -0.224077361883583E+01
              0.138115393660871E+01
             -0.112418130494743E+00
             -0.125524259955712E+01
             -0.437987814230537E+00
              0.447283501687016E+00
             -0.959212344223050E+00
             -0.113868410016782E+01
              0.231744592334513E+01
             -0.716505304066517E+00
             -0.989481046021265E+00
              0.807045630481629E+00
             -0.537968120293705E+00
              0.144678348133679E+01
             -0.370305715961301E-01
              0.810836659226357E-01
              0.279275648918865E+01
             -0.249090495563459E+00
             -0.989571747520354E+00
             -0.121220718256034E+01
             -0.134002177119340E+01
             -0.957626574349067E+00
              0.762399788547919E+00
              0.768716944271086E+00
              0.728577313673892E+00
              0.191595515581382E+01
              0.122463027103559E+00
              0.576808061243801E+00
             -0.150771600661072E+01
              0.432054693494219E-01
             -0.436484252781599E+00
             -0.697919460821069E+00
             -0.148053613882464E+00
              0.851721327824966E+00
              0.974448543918713E+00
             -0.600099235455691E-01
              0.312284787534198E+00
              0.718679826409776E+00
              0.906226353410618E+00
             -0.590159454121914E+00
             -0.242509389207310E+00
              0.205370106826965E-01
             -0.671289771470423E+00
             -0.102365259993714E+00
             -0.990623927983275E+00
              0.200376596911025E+01
              0.157603868010228E+01
             -0.448840734222930E+00
              0.408556069668498E+00
             -0.142211995629103E+00
             -0.785423894573752E+00
              0.953323776281633E+00
             -0.239778371606738E+00
              0.932701891489633E+00
             -0.123782282801241E+01
              0.454288662044172E+00
             -0.196462341111795E+00
             -0.138682870170330E+01
             -0.612724269523486E+00
              0.615797791026265E+00
             -0.251449841361931E+01
              0.988883447509918E+00
              0.120802139464102E+01
             -0.250137280224174E+00
             -0.187550949260348E+00
             -0.881356182163806E-01
              0.691531049782466E+00
             -0.866384515612451E+00
              0.799451524066507E+00
              0.831903348868925E+00
             -0.237166622027634E+01
             -0.938567883131736E+00
              0.615327952023933E+00
             -0.328550204217454E+00
              0.123350205087387E+01
             -0.158791998935972E+01
             -0.225158299365763E+00
             -0.102729344450976E+01
             -0.333377082293351E+01
              0.203309230511363E+01
             -0.155177926095292E+01
             -0.171889591943993E+01
              0.164526134755385E+00
              0.331783957969301E+01
              0.173016226257424E+00
             -0.817184194898720E+00
             -0.282088437228296E-01
             -0.103687404619073E+00
             -0.223625178554890E+01
             -0.143227214529270E+01
              0.220277755804971E+01
             -0.298377914266140E+00
             -0.939155865675687E+00
              0.127228289640993E+01
             -0.844792898618832E+00
              0.871053692269756E+00
              0.125111673960323E+01
             -0.139269440187262E+01
             -0.727395908332651E+00
             -0.827830494661189E+00
             -0.426521648682853E+00
             -0.512516130415989E+00
             -0.450730138946192E+00
              0.501926349747253E+00
             -0.907273396984514E+00
              0.717855741817586E+00
              0.143441918372610E+01
             -0.200938702290707E+00
             -0.518205907000180E+00
              0.377386285158595E+00
              0.140275444002432E+01
              0.140925300353506E+01
              0.233272076995236E+00
             -0.258187799095799E+00
             -0.267486465352619E+00
             -0.137337463126324E+01
              0.103791238203323E+01
             -0.649056970990396E+00
              0.573518938566286E+00
             -0.341189537102792E+00
              0.680410553691027E+00
              0.443077417411597E+00
             -0.210618827815549E+01
             -0.660906506586045E+00
             -0.202059222532229E+01
             -0.102654974797143E+01
              0.126246661309006E+00
             -0.501062454134711E+00
              0.894719744633423E+00
             -0.725925817178089E+00
              0.793453569083162E-01
              0.187533578894531E+00
              0.183648781189427E+01
              0.948083572944236E+00
             -0.815052040479808E+00
             -0.409248400866522E-01
              0.388825733876995E+00
              0.956107904588298E+00
             -0.677313982996708E-02
              0.144405484732256E+01
              0.723492768751715E+00
              0.231050139737926E+01
              0.103547704412297E+00
              0.161929013135221E+01
             -0.700162242156362E+00
             -0.101815234725362E+01
              0.792799687606109E-01
              0.270738320679801E+00
              0.605226655742672E+00
             -0.486376788086014E+00
             -0.294716936999666E+00
              0.588990237332389E+00
             -0.121246537358843E+01
             -0.151678075658099E+01
              0.203232074066739E+01
             -0.162166456539040E+00
             -0.968074442143009E+00
             -0.132408392237879E+00
             -0.354310296009620E+00
              0.109217719174285E+01
              0.933706950637985E+00
             -0.517222606863269E+00
             -0.117509580340460E-01
             -0.679170664598753E+00
             -0.905272209054104E+00
             -0.639493069028308E+00
             -0.251168437381745E+01
              0.104327351134685E-01
             -0.168642110793115E+01
             -0.151186631643295E+01
             -0.983944069940065E+00
              0.554292879317916E+00
             -0.100079504471085E+01
              0.605009946282139E+00
             -0.164699295168590E+01
             -0.222373372887219E-03
             -0.109085433967316E+01
              0.185459882441895E+00
              0.198307698705065E+00
              0.886039594251685E+00
             -0.524491693587448E+00
             -0.492381996439750E+00
              0.806318372873985E+00
              0.154284100837974E+01
              0.829098598933203E+00
              0.271034809008661E+00
             -0.190433567994044E+01
             -0.386738122725271E+00
             -0.711355134979868E+00
             -0.159571633217089E+01
              0.110685776125006E+01
             -0.881262279501447E+00
             -0.196329517146801E+00
             -0.694556050712643E+00
             -0.256040164105068E+01
              0.144568556581066E+01
             -0.457597673137823E+00
              0.999751371584418E+00
             -0.191634734953449E+01
              0.167837711825395E+01
              0.152232529210188E+00
             -0.681600028421303E+00
              0.243457964740546E+00
             -0.532126994893218E+00
             -0.164209581242409E+01
              0.454880466682994E+00
              0.964931530912243E+00
             -0.225512446098275E-01
             -0.890877729619675E+00
             -0.390677318227149E+00
              0.527153285623049E+00
              0.936916937434559E+00
              0.160033380460487E+01
              0.580786593978480E+00
             -0.596998392066949E+00
              0.253532324475504E+01
              0.574558776377306E+00
              0.119370451066174E+01
             -0.414566524065693E+00
              0.768686766828775E+00
              0.589604776177245E+00
             -0.158893350762986E+01
             -0.574250453595551E+00
             -0.102684263565018E+01
             -0.103468210117032E+01
             -0.298329860383284E+00
             -0.232173983970986E+00
             -0.115696164068219E+01
             -0.287003974241506E+01
             -0.699097240973101E+00
              0.367354867301678E+00
              0.148355142009795E+00
              0.383308034333225E+00
              0.105999945187429E+01
              0.299297116160130E+00
              0.812997751327522E+00
             -0.112918225194651E+01
              0.110914893060985E+01
             -0.103455712994255E+01
             -0.173577011419994E+01
              0.511753062734961E+00
             -0.106357362022831E+01
             -0.103408769915982E+01
             -0.410254118686441E+01
             -0.194766911112244E+00
              0.215730031532862E+01
              0.106473870208599E+01
             -0.258934849779987E+00
             -0.265919856279243E+00
              0.108839788145345E+01
              0.163978980937568E+01
             -0.100773852213155E+01
             -0.336448243222470E+00
             -0.921092521715683E+00
             -0.860091438870572E+00
             -0.779510000531019E+00
              0.297049679020169E+00
              0.180742061374310E+01
             -0.168258182019620E+01
             -0.139791971734353E+01
              0.899709134011157E-01
             -0.368164221266307E+00
             -0.461150388892389E+00
             -0.230998644932888E+01
              0.158043205427988E+01
              0.515269102154086E+00
              0.219019064229174E+00
              0.135066080300700E+01
             -0.833634853224159E+00
              0.869969355540369E+00
              0.746211923481893E+00
              0.616913171538540E-01
             -0.212077578134468E+00
              0.233578975744314E+00
             -0.395929530012314E+00
              0.133288768040233E+01
             -0.104065073903861E+01
              0.117785272636550E+01
              0.242958084856035E+00
              0.421270192866158E+00
              0.508934864997549E+00
             -0.208423892300148E+01
              0.240046912336199E+00
             -0.170596625046177E+01
             -0.124789798165173E+01
             -0.123374666509452E+01
             -0.133584502912992E+01
              0.114135053853310E-01
              0.470498755688759E+00
              0.127855552696999E+01
              0.195850034307790E+00
              0.375345696731910E+00
             -0.179233712937273E+01
             -0.723935746883877E+00
              0.836047329717768E+00
             -0.679086793141086E-01
             -0.807961741843828E-01
             -0.252900105966766E+00
              0.926089049138521E+00
             -0.233704048439921E+01
              0.345541633840493E+00
              0.558325190383009E+00
              0.101482875718647E+01
              0.960193954193048E+00
             -0.145955961765372E+01
              0.399563952528869E+00
              0.161497608817300E+00
              0.185075459088004E+00
              0.130154332640180E+00
             -0.511924519563189E+00
             -0.110180513504847E+01
              0.453026398243557E+00
              0.150075358699717E+01
             -0.410194718645123E-01
              0.350318355823019E+00
              0.315114600908343E+00
             -0.791798731148735E+00
             -0.825128207996613E+00
             -0.315215483756828E+01
             -0.989733033374518E+00
             -0.148322933142940E+01
             -0.172979313955258E+00
             -0.174152056004777E+01
              0.194869430915012E+01
             -0.862960400142800E+00
             -0.140664452796526E+01
             -0.404090756463401E+01
              0.174018080333308E+01
              0.375327382593953E+00
              0.213855945469834E+00
             -0.156809034614413E+01
              0.110273552869231E+00
             -0.407283777244889E+00
             -0.806499798698752E+00
              0.205091313151216E+00
              0.826854393038417E+00
              0.135495936367062E+00
             -0.515160401011688E+00
              0.841006198596794E-01
              0.284389844364803E-01
              0.294185965699068E+00
             -0.171764915659704E+01
              0.187873445626821E+01
             -0.106605329835797E+01
             -0.677402509596223E+00
             -0.130354840927216E+01
             -0.278428533956625E+01
              0.130342280010264E+00
             -0.145878654477551E+01
             -0.488216582832976E+00
              0.797754050456682E+00
             -0.685880376022638E+00
             -0.279832977581119E+00
             -0.328393363556271E+00
             -0.540282816510098E+00
              0.784170637169677E-01
              0.132244351366336E+01
             -0.131250649522404E+01
              0.265294886643953E+01
             -0.631945704723526E+00
              0.848424259566603E+00
             -0.440554778448679E+00
              0.316749313802249E+00
             -0.313092223569090E+00
              0.116087186508103E+01
              0.162790614027052E+01
              0.468099831655687E+00
              0.117546674408297E+01
             -0.774495828170247E+00
             -0.176998898602933E+00
             -0.621448409375480E+00
              0.162559481194080E+01
              0.140440269571783E+01
              0.102675619316785E+01
             -0.343792106814956E+00
             -0.665027164888518E+00
              0.624200157089885E+00
             -0.734977140576827E+00
             -0.374626837278951E+00
             -0.160054022903869E+00
             -0.901172002615858E+00
              0.127380941909979E+01
             -0.274309458542603E+00
              0.925510643165639E+00
              0.547238906505073E+00
              0.402996131473172E+00
             -0.879313806904042E+00
              0.668257010611271E+00
             -0.352741089026672E+00
             -0.180497065007771E+00
             -0.266025092787849E-01
             -0.125459695385359E+01
              0.200500592241272E+01
             -0.707417220683496E+00
              0.850570991728361E-02
              0.620778655667980E+00
              0.531235266760619E+00
              0.198328072308774E+01
             -0.567452665677280E+00
              0.193784603447999E+01
              0.172115017738229E+01
             -0.240723113045523E+01
              0.193822611169140E+00
             -0.475193740463341E+00
              0.293801483506567E+00
              0.111969691573846E+00
              0.537107705210776E+00
              0.164863163759972E+01
              0.253101844259304E+01
             -0.190057044663813E+01
              0.196075942300739E+01
             -0.256659673105195E+01
             -0.219322523592091E+01
             -0.368047587886347E+00
              0.322705788068749E-01
              0.201543808894386E+01
              0.847500508977877E+00
             -0.367912906636409E+00
             -0.216300435228378E+01
              0.172268020360558E+01
             -0.107397543424469E+01
              0.430329201538804E-01
             -0.125907579485804E+00
              0.334950366737392E+01
             -0.593019751828688E+00
             -0.270132486086877E+01
              0.786592974307686E+00
             -0.417750695449991E+01
              0.337509149509033E+00
             -0.992152877410839E+00
             -0.444209761245451E+00
             -0.676724668277489E+00
             -0.153076724404876E+01
              0.949737760368423E+00
             -0.925623479921908E+00
             -0.346669508097339E+00
             -0.194849963921886E+01
             -0.115894872166058E+00
             -0.138447779904674E+01
             -0.197634439706183E+01
             -0.276896795067668E+01
              0.215116050093217E+00
             -0.935133239670979E+00
              0.225233463170325E+00
             -0.335902055828749E+00
             -0.212870169901193E+01
             -0.164501720814073E+01
             -0.145502034336857E+01
             -0.148471055589826E+01
              0.134249457073395E+01
              0.176144750770119E+00
             -0.126717929319731E+01
             -0.629277774149216E+00
             -0.703423562584244E+00
              0.105383436707414E+01
             -0.803792688428333E+00
             -0.142009988245508E+00
             -0.785020349578195E+00
             -0.102495303026121E+01
             -0.105677684888409E+01
              0.105133870499694E+01
             -0.323661477532977E+00
             -0.234514044439220E+01
              0.201123456842053E+01
              0.117898705227770E+01
              0.896772945878208E-01
             -0.207513453339000E+01
             -0.192348542636248E+01
              0.155016496827423E+00
              0.241598410856696E-01
             -0.873660082114956E+00
             -0.114756663036976E+01
              0.799037176975210E+00
             -0.138903728797755E+00
              0.698058314805921E+00
              0.121886228656107E+01
              0.912025243002770E+00
              0.646514360160652E+00
              0.563821449688608E+00
             -0.574460216061667E+00
             -0.386541409325197E+00
             -0.470284646577239E+00
             -0.980385801294783E+00
             -0.122245117523757E+01
             -0.157193777970622E+01
             -0.930124134442857E+00
             -0.318182244755548E+00
             -0.192696208858159E+01
             -0.424718845207032E+00
              0.893845462851935E+00
             -0.214081610323671E+01
              0.924942904669152E+00
              0.731369870669615E+00
             -0.184323360560927E+01
             -0.143916449858424E+01
             -0.576183275527239E+00
              0.336900696195155E+00
             -0.106075610144114E+01
              0.193870220304425E+01
              0.171169510741481E+01
             -0.198589553755434E+01
              0.110034571113668E+01
              0.931285796337479E+00
              0.255830759044582E+00
              0.494064833307398E+00
             -0.109218134983713E+01
             -0.404818943832147E+00
              0.158368914420185E+00
              0.520236172524054E+00
              0.107516563145851E+01
             -0.139822791739618E+01
             -0.272577518233465E+00
              0.426112363736001E+00
              0.209677472486670E+00
             -0.874211782453223E+00
              0.477469792772371E+00
             -0.651857178477526E+00
             -0.450710921918096E+00
             -0.113826420167005E-01
             -0.159126466242853E+01
             -0.532242406721384E-02
             -0.259425684325995E+00
             -0.392206680225982E+00
              0.375386911300430E+00
             -0.136331423425426E+01
              0.148622144880182E+01
             -0.558165618983411E+00
             -0.344368477300269E+01
             -0.222295765301052E+01
              0.901207892225327E+00
             -0.105575388608576E+01
             -0.557221151769806E+00
             -0.621130388024082E+00
             -0.487406677972849E+00
             -0.266590974263185E+01
             -0.442259969193763E-01
             -0.159626570360855E+01
             -0.852228774386457E+00
              0.532035237283704E+00
              0.201932055113956E+01
              0.107939359394848E+00
              0.720323491220758E-01
              0.154453599639413E+01
             -0.146398448605851E+01
              0.737527878132414E+00
              0.161260254360407E+00
             -0.133382773503756E+01
             -0.757237600771743E+00
              0.507813343369929E+00
              0.747627566870817E-01
              0.423812716843599E+00
              0.364756548675295E+00
             -0.608408922868660E+00
             -0.824256762429588E+00
             -0.128231874093049E+01
              0.127658300800921E+01
             -0.174820742435318E+01
             -0.129038220858338E+01
              0.377917004956211E+00
             -0.218025363261199E+01
              0.583007685550458E+00
              0.152195200495737E+01
             -0.292759748855288E+00
              0.491590529014513E+00
             -0.844887439495377E+00
             -0.569385795079775E+00
              0.279058290162942E+00
              0.931604281464764E+00
             -0.946525761431765E+00
              0.587464754140925E+00
             -0.367182452705444E+00
              0.150537252437969E+00
              0.493765200481058E+00
              0.267453917115444E+00
             -0.300418565936353E+00
             -0.221544870301109E-01
              0.332777064303222E+00
              0.716423110375807E+00
             -0.181766335224225E+01
             -0.393011809956363E-01
              0.137880550008929E+01
             -0.229151792387469E+01
              0.852008897021238E+00
             -0.294212283814556E+01
             -0.283648370172414E+00
             -0.371507999878443E+00
             -0.736423436957097E-01
             -0.313093870565480E+00
             -0.719345827902897E+00
             -0.254943547546500E+00
              0.348174886770879E+00
             -0.634208032313549E+00
              0.281943873431992E+00
              0.232719533508692E+01
             -0.148328506613600E+01
             -0.659447316391050E+00
              0.106324404152087E+01
              0.535499878533663E+00
              0.107735635287076E+01
              0.494784724102452E+00
              0.463659315410174E+00
             -0.370197872478625E+00
             -0.127349869791744E+01
             -0.114319740819754E+01
             -0.865215465301231E+00
              0.136786530729707E+00
             -0.108192890930764E+01
             -0.297438771151159E+00
              0.160214843801577E+00
              0.630361041037672E+00
             -0.176607839333786E+00
              0.151057950980310E+01
             -0.166304188722000E+01
             -0.390378658958284E-01
             -0.202174766131624E+00
              0.809872967769156E+00
             -0.111793670416164E+01
             -0.722368998100857E+00
              0.377468389260161E+00
              0.119450579563882E+01
              0.192670638164107E+01
              0.794290447891367E+00
              0.118017806161586E+01
             -0.646672044490792E+00
              0.161906410917153E+01
              0.162927101955124E+01
             -0.515443717850843E-01
              0.811910865198986E+00
              0.982080300677503E+00
             -0.534956300029064E+00
              0.339099797762287E+00
              0.169286980126515E+01
             -0.553111558725830E+00
             -0.184062971118401E+00
             -0.161904992111737E+01
              0.586261845878709E+00
             -0.365040555558282E+00
              0.552090738754870E+00
              0.531822003236258E-01
             -0.101592206895056E+01
              0.117945659952803E+01
              0.101638968169170E+01
             -0.794746977818923E+00
              0.431598584813392E+00
             -0.152016602054423E+01
             -0.140640578239856E+01
              0.643476968212536E+00
             -0.176385671481593E+01
             -0.887710671963988E+00
              0.419706544703935E-01
              0.221052780337142E+01
             -0.576802885971523E+00
             -0.272385201069158E+00
             -0.508495616433829E+00
              0.288920364911524E+01
              0.486042657894762E+00
             -0.108720473074934E+01
              0.181140361452241E+01
              0.160165934197394E+01
              0.844135456944690E+00
              0.204865744591727E+01
              0.222130290281713E+01
             -0.107650139895938E+00
             -0.756342944350782E+00
             -0.658164769909000E+00
              0.699109792699576E+00
              0.998954944126675E+00
             -0.178371945755821E+00
             -0.613347603518696E+00
             -0.147394398188563E+01
             -0.554500644597526E+00
             -0.119741907704833E+01
              0.864350698689446E+00
              0.441088659609964E+00
              0.154214215634132E+01
              0.330385300978753E+00
             -0.603359058216746E+00
             -0.230176887811255E+00
              0.103314784874852E+01
              0.273470888506875E+00
              0.156749111739383E+01
              0.143174275960714E+01
             -0.233750595556238E+00
             -0.214379645275658E+00
             -0.260051750799428E+01
              0.127567577362680E+01
             -0.211965062965618E-01
              0.146294433489925E+01
             -0.650466590593923E+00
             -0.169437618279864E+01
              0.491380290575110E+00
              0.186488673210773E+01
             -0.651389635667206E+00
              0.171162253986822E+01
             -0.184573370825503E+01
             -0.669257636982511E+00
             -0.219840614581816E+01
              0.440905884897417E+00
              0.144000454414575E+00
              0.204298798232598E+00
             -0.159417844909094E+01
              0.237486345501710E+01
              0.137791135793615E+01
              0.156012843006495E+00
             -0.137122130085031E+01
              0.519687090259792E+00
             -0.488361064688807E+00
             -0.369448290633601E+00
             -0.685202147473449E+00
              0.439592855882434E+00
             -0.415043653036827E+00
             -0.471281633904326E+00
              0.596959571274281E+00
              0.602983033547259E+00
             -0.231424455818849E+01
              0.505423587974936E+00
              0.169921183313740E+01
              0.109350943893337E+01
             -0.349884210784443E+00
             -0.382723968170651E-01
             -0.947107607184790E+00
              0.144590384526917E+01
              0.246863800215603E+00
             -0.785290651144566E-01
             -0.145567601362837E+00
              0.280722628200098E+01
             -0.170390333212229E+00
              0.610123907912987E+00
              0.190515096335161E+01
              0.248778566644511E+01
              0.153385168809490E+01
              0.102099694370135E+01
             -0.162508807466888E+01
             -0.118963478344057E+01
              0.934824033535457E+00
              0.992588435938622E-01
              0.792703274301717E+00
              0.326293137272270E+00
              0.165821238737618E+01
             -0.204748170390988E+01
             -0.126411771602294E+01
             -0.284773332906648E+00
             -0.223965167943652E+01
              0.489945065615413E+00
              0.117120303918139E+01
              0.486625353074519E-01
             -0.529209954538926E+00
              0.536040142469136E+00
              0.347137283185334E+01
              0.810216679926247E+00
              0.458286278558390E+00
             -0.123025914335257E+01
             -0.150961581107096E+01
             -0.346649677062310E+00
              0.724352271191671E+00
             -0.152784288439236E+00
              0.652156264237405E+00
              0.900833769455581E+00
             -0.160068095777822E+01
              0.697231055665252E+00
              0.893772612110148E+00
              0.146694912066611E+01
             -0.261494433547995E+00
              0.123368941642413E+00
             -0.178889768907945E+00
             -0.114985987099141E+01
             -0.188700279293890E+01
              0.196767769051483E+01
             -0.264842551404275E+00
             -0.137612823726266E+01
              0.198418200513555E+00
             -0.776712514600064E+00
              0.219514629447534E+01
             -0.571797980646394E+00
             -0.968425861854604E+00
              0.939371667735498E+00
             -0.395332113271599E+00
              0.119843149651165E+01
              0.369724283601878E-01
              0.239125136808281E+01
              0.133702644400370E+01
              0.290512898279050E+00
             -0.100960269969011E+01
              0.734785268027082E+00
             -0.139638656566390E+01
             -0.119418374019103E+00
              0.165627570075730E+01
             -0.651886885313652E+00
             -0.111789076611534E+01
             -0.580141233130689E+00
              0.132620982395341E+01
              0.305698509267261E+00
             -0.209866257880572E+01
              0.883803146995668E+00
              0.180150509641964E+00
              0.281548022462070E+00
             -0.124219540764915E+01
              0.253549954349150E+00
              0.885714992308728E+00
              0.119392637674065E+01
              0.165835036387580E+01
              0.895828650877487E+00
              0.203380198663520E+00
             -0.140944678864561E+01
             -0.107352157448808E+01
             -0.167836892646883E+01
             -0.353634596089449E+00
              0.877595076554943E+00
             -0.154137687776195E-01
              0.133380507196591E+01
             -0.822540470402890E+00
              0.446045099352077E+00
             -0.578148771753408E+00
             -0.685036276357598E+00
              0.150120208564503E+01
              0.134710432402268E+00
              0.159295820414985E+01
              0.141482346455316E+00
              0.515287934592899E+00
             -0.402498554385515E+00
              0.154563759681261E+01
             -0.402467440801090E+00
             -0.135058709708707E-01
             -0.200380258199419E+01
             -0.187118099718727E+00
              0.178694424654303E+01
              0.166909901452970E+01
              0.629631246239650E+00
             -0.397753575574274E+00
              0.117166296085463E+00
             -0.592380800642160E+00
             -0.474360836501272E+00
              0.228992197268710E+01
              0.182039112149049E+00
             -0.739377391123774E+00
             -0.273984711713568E+01
             -0.112246008142807E+01
             -0.966711625828377E+00
             -0.158122314919247E+01
             -0.153037093774394E+01
             -0.182779486404960E+01
             -0.115222340633990E+01
             -0.720502135695282E+00
             -0.122265117991103E+01
              0.113392753421554E+01
             -0.462964481378940E+00
             -0.220987498021938E+01
              0.107312247801161E+01
             -0.861226556110075E+00
             -0.203137813822575E+01
              0.259409446981071E+01
             -0.652990287875035E+00
              0.389512212364805E+00
              0.977936127360769E+00
              0.327751565651979E+00
              0.659628551089513E+00
              0.218265369077248E-01
              0.320759127567823E-01
             -0.320861188821101E+00
             -0.188076664155549E+01
              0.279428167597813E+00
             -0.309065849089957E+01
              0.183689318470273E+01
             -0.103485394168246E+01
             -0.470509801204222E+00
             -0.524714397455567E+00
              0.557771679176886E+00
             -0.415843816041642E+00
              0.738903920566249E+00
             -0.150161383932916E+01
              0.937880869038945E+00
              0.109060321156889E+01
              0.247727274848498E+00
              0.230383034098108E+00
              0.552063257411702E+00
              0.250675483596039E+00
              0.778771579630938E+00
             -0.117662434324420E+00
             -0.188742804914241E+01
              0.250009371866105E+00
             -0.884359654711677E+00
             -0.740888139793396E-01
              0.141828064725918E+01
             -0.205402369150055E+01
              0.492653608707005E-01
              0.808272818914766E-01
              0.239954050755905E+00
              0.786623578600279E+00
             -0.328103345469363E+00
              0.216300293969506E+01
              0.958111241295139E+00
             -0.378738402711660E+00
             -0.239751074173810E+00
              0.161253890638644E+00
              0.202167132862775E+01
             -0.126230267577722E+01
             -0.259801875007139E+01
              0.742489126116131E+00
             -0.196724587053921E+00
             -0.394947923291971E+00
              0.494307663204671E+00
              0.194822250001641E+01
              0.107496545642259E+01
             -0.438315591555712E+00
             -0.138716155682791E+01
             -0.323227964905492E+00
              0.708128450769247E+00
             -0.459633072183886E+00
             -0.194632899433400E+01
             -0.234301192416692E+00
             -0.250299342996886E+01
             -0.131975104575737E+01
              0.222887211962799E+01
             -0.133627235078766E+01
             -0.183558977692961E+01
             -0.136937302279180E+01
             -0.102186963905141E+01
              0.866793214076382E+00
              0.218293391641912E+01
             -0.239842777261789E+00
              0.687284787313167E+00
             -0.512181281138632E+00
             -0.174256496871854E+01
              0.133719436544469E+01
             -0.124427711864711E+01
              0.654533474731520E+00
              0.737425503680573E+00
             -0.405152240594091E+00
              0.972306016367139E+00
              0.997683071665023E+00
              0.308937523905436E+01
             -0.270163986995689E+00
             -0.143847857189222E+01
             -0.171107989625804E+01
             -0.485212707694860E+00
             -0.106275871817185E+01
              0.240723868403243E+01
             -0.116492074049775E+01
              0.257316158981286E+00
              0.650415629876200E-01
             -0.503920930879542E+00
             -0.219959288382304E+01
             -0.171963049355617E+00
              0.257803884148758E+01
              0.555796229702294E+00
              0.197410526315595E+00
             -0.149508918806002E+01
             -0.138883685887768E+01
             -0.455505224998783E+00
              0.116205760910056E+01
             -0.686264666708079E+00
              0.259104326415221E+01
             -0.120505839472989E+01
              0.489493407830633E+00
             -0.360071458153039E+00
             -0.157872453924991E+01
              0.179150431333191E+00
             -0.145793185541151E+01
             -0.189633499001657E+01
              0.274381918004782E+00
              0.363045143965226E-01
              0.125528415457497E+01
              0.693118674824607E+00
             -0.902388249848580E+00
              0.576535756368191E+00
             -0.226054350178714E+01
             -0.122226309776979E+01
              0.240117442226954E+01
              0.970031673398806E-01
             -0.139027379273042E+00
             -0.639958202611457E+00
             -0.558079387773702E-02
             -0.302056955472812E+00
              0.235249208686217E+01
              0.105619099960610E+01
             -0.223382651928013E+00
             -0.100683401042883E-01
             -0.986708025500376E+00
             -0.337148778389748E+00
             -0.160198200129541E+01
              0.133046086288744E+01
              0.166783011197929E+00
              0.203469203244611E+00
              0.469623743493146E+00
             -0.353708170407926E+00
             -0.583399122674008E+00
              0.200676529646724E+00
             -0.286398314850737E+01
             -0.273875228412171E+00
             -0.236442971001686E+00
             -0.159411156579553E+00
              0.127129176435627E+01
              0.165647877104519E+01
              0.454124376281628E+00
             -0.239695316421528E+01
              0.164831825170556E+01
             -0.627627202210386E+00
             -0.954891153981015E+00
             -0.225188179739843E+01
             -0.709767261703673E+00
              0.160527831255684E+01
              0.859708028555541E+00
              0.430217690124932E+00
              0.903887904710921E+00
             -0.143260979323217E+01
             -0.125883119124124E+01
              0.161512163195188E+01
              0.107611525905353E+01
              0.121844728333431E+01
              0.196869078295166E+00
              0.271323422542542E+00
              0.135969582330438E+01
              0.255370953298690E+01
             -0.469070640345540E+00
              0.103795489341340E+01
             -0.724133365052236E+00
             -0.112949393617707E+01
             -0.891043797102058E+00
             -0.849669893693537E+00
             -0.357222437594789E+00
             -0.123149718315044E+01
             -0.504306398354068E+00
             -0.333042684525416E+01
              0.804686630020300E+00
              0.737833289929797E+00
             -0.761880230821463E-01
             -0.955840695570735E+00
             -0.480448815155379E+00
             -0.144904553701821E+01
              0.152147096966955E+00
              0.204185030452652E+01
             -0.473009574289559E+00
             -0.486808920813738E+00
              0.485494024472882E+00
             -0.129825385324510E+01
              0.222601205938466E+01
              0.410442637195852E+00
              0.165261465381292E+00
              0.135046592618212E+01
             -0.148077913335023E+00
              0.152392125902066E+01
              0.510663799769526E+00
             -0.581413872140422E-01
              0.355338396757677E+00
             -0.249655770270762E+00
              0.174985138195768E+01
              0.182387159549686E+00
              0.542309950587406E+00
             -0.223503544126306E+00
              0.266693229886872E+00
             -0.242644247495400E+01
             -0.921195380556965E+00
             -0.127136509256625E+01
              0.131555916053011E+01
             -0.916640535079167E+00
             -0.144405057895093E+01
              0.154052797289802E+01
             -0.364303566948181E+00
              0.107556837731390E+01
             -0.230709720102298E+01
              0.475374785156892E+00
              0.107274760358924E+00
              0.159935330833466E+00
             -0.344213975705417E+00
             -0.164889982122888E+00
              0.128858285187717E+01
              0.735282425236274E-01
             -0.135101955264067E+01
             -0.557083352536207E+00
              0.491203513741284E+00
             -0.298331480457050E+01
             -0.225656666558912E+01
              0.261883736395365E-01
              0.412774070955181E+00
             -0.130525994050845E+01
              0.226835493726911E-01
              0.266188064314921E+01
              0.774071935606539E+00
             -0.139149961222164E+01
              0.199743975947229E+00
             -0.270657297290070E+00
              0.332735356442066E+00
             -0.913326465113533E+00
              0.585278434952447E+00
              0.602759415235088E+00
             -0.230081456086731E+00
              0.290277082125233E+01
             -0.110328653517347E+00
             -0.802044590038793E+00
              0.804400776661257E+00
              0.110688771419308E+01
             -0.837380219048891E+00
             -0.187731901760837E-01
              0.252592332565151E+01
             -0.371390258280062E-01
              0.132972180439129E+01
              0.426586850424041E+00
             -0.186874231744309E+00
             -0.388932361293135E+00
              0.123964061259370E+01
             -0.153720825943063E+01
             -0.592584044264104E-01
             -0.515766003747119E+00
             -0.104519160935179E+01
              0.279805066356625E+00
              0.627409790140235E+00
             -0.368844467608049E-01
             -0.519376433863599E-01
             -0.106318705344506E+01
              0.396400587154181E+00
             -0.331269221045507E-01
             -0.567350774383311E+00
             -0.526011943395788E+00
              0.449827234747449E+00
             -0.110719515020659E-01
             -0.998756628518639E+00
             -0.276276070116930E+01
              0.155702423134934E+00
              0.398708999156897E+00
             -0.124306842454894E+01
             -0.644717961663059E+00
              0.211815927669427E+01
              0.323509714448325E+00
              0.114292897125761E+01
              0.276177814785147E+00
              0.102326037667978E+01
              0.547113970933282E-01
             -0.103305303704930E+01
             -0.294503601481177E+00
              0.138919502330951E+00
              0.801064478285443E+00
              0.193965465488545E+01
              0.126913212831773E+01
              0.732787609838468E-01
              0.280032422627110E+00
              0.156184457443685E+01
              0.726912558977964E+00
             -0.180432846392604E+01
             -0.715984691599097E+00
              0.298635784256014E+00
              0.261960045519777E+00
              0.656395565925353E+00
             -0.132646822963056E+01
              0.125759873139328E+00
              0.105706538747011E+01
              0.126175274178233E+01
             -0.109340624542096E+01
              0.685380914470652E-01
             -0.713784986786941E-01
             -0.548746977952851E+00
             -0.657486096154107E+00
             -0.301649710936754E+00
             -0.306320684609291E+00
              0.286592134825275E+00
              0.108245156086746E+01
             -0.837621095783255E+00
              0.209100869794691E+01
              0.868740912435259E+00
              0.673353433741096E+00
              0.960412663406195E+00
              0.647799108106259E+00
              0.894318671519247E+00
              0.143505917139963E+01
             -0.122481783017776E+01
              0.162212415082395E+01
             -0.293350526944178E+01
              0.817373849610315E+00
             -0.271378169332962E+01
              0.207188698739491E+01
              0.202564809953937E+01
             -0.214020494994754E+00
             -0.121322195966942E+01
             -0.110651009652146E+01
             -0.139378886762532E+01
             -0.169577458722604E+01
              0.140117363386040E+01
              0.111165354779755E+01
              0.627719737967914E+00
              0.670640992420099E+00
              0.114354725363341E+01
             -0.105534213701092E+01
             -0.371192364151495E+00
              0.137466768123973E+01
             -0.309639907480801E+00
              0.127299234121053E+01
              0.200173858524620E+01
             -0.853430428027226E-01
             -0.194770054092992E+01
              0.134939491592899E+00
              0.498107006233586E-01
             -0.271660671948977E+00
              0.872282017602650E-01
             -0.167155047964450E+01
             -0.225224362864585E+00
              0.357649839330284E+00
              0.356107442206656E+00
              0.129214938978147E+01
             -0.108352376756507E+01
              0.134525928770850E+01
             -0.991205922656675E+00
              0.701317069833652E+00
              0.113030954084388E+01
 
 BEEF-vdW xc energy contributions
           1 :   -18.2149922666518     
           2 :    15.0766152466889     
           3 :   -10.5462192086348     
           4 :    6.27810028592836     
           5 :   -3.04278864253578     
           6 :   0.980713174087963     
           7 :   8.474945311662552E-002
           8 :  -0.482897023414839     
           9 :   0.562152642488847     
          10 :  -0.590297698869115     
          11 :   0.675668443735244     
          12 :  -0.779504834886950     
          13 :   0.810782766955384     
          14 :  -0.723325498945801     
          15 :   0.536290978437485     
          16 :  -0.310677693174679     
          17 :   0.113271125454755     
          18 :   1.024156395968845E-002
          19 :  -5.569828951107780E-002
          20 :   5.421463553980743E-002
          21 :  -4.645553065752850E-002
          22 :   5.346361231507757E-002
          23 :  -7.077117861762972E-002
          24 :   8.013010497282735E-002
          25 :  -6.619944879571094E-002
          26 :   2.380651711458626E-002
          27 :   3.510552957908430E-002
          28 :  -8.639702790242509E-002
          29 :   0.111447817717686     
          30 :  -0.110034144025104     
          31 :   -2.40595545722839     
          32 :   -1.50374907787469     

     Writing output data file ./pwscf.save/
 
     init_run     :     77.42s CPU     80.50s WALL (       1 calls)
     electrons    :    732.85s CPU    796.84s WALL (       1 calls)
     forces       :     35.53s CPU     38.30s WALL (       1 calls)

     Called by init_run:
     wfcinit      :      2.96s CPU      3.05s WALL (       1 calls)
     potinit      :     59.73s CPU     61.83s WALL (       1 calls)
     hinit0       :     12.54s CPU     12.68s WALL (       1 calls)

     Called by electrons:
     c_bands      :    153.47s CPU    154.83s WALL (      17 calls)
     sum_band     :     66.79s CPU     78.80s WALL (      17 calls)
     v_of_rho     :    373.91s CPU    409.21s WALL (      18 calls)
     newd         :     27.24s CPU     39.39s WALL (      18 calls)
     PAW_pot      :      2.34s CPU      2.35s WALL (      18 calls)
     mix_rho      :    160.69s CPU    166.49s WALL (      17 calls)
     vdW_kernel   :     33.53s CPU     33.53s WALL (       1 calls)

     Called by c_bands:
     init_us_2    :      2.14s CPU      2.17s WALL (      35 calls)
     regterg      :    149.44s CPU    150.79s WALL (      17 calls)

     Called by *egterg:
     rdiaghg      :      0.04s CPU      0.04s WALL (     164 calls)
     h_psi        :    133.21s CPU    133.25s WALL (     165 calls)
     s_psi        :      4.00s CPU      4.00s WALL (     165 calls)
     g_psi        :      0.43s CPU      0.43s WALL (     147 calls)

     Called by h_psi:
     h_psi:calbec :      3.27s CPU      3.27s WALL (     165 calls)
     vloc_psi     :    125.20s CPU    125.21s WALL (     165 calls)
     add_vuspsi   :      4.08s CPU      4.08s WALL (     165 calls)

     General routines
     calbec       :      3.89s CPU      3.90s WALL (     186 calls)
     fft          :    355.47s CPU    355.50s WALL (    2991 calls)
     ffts         :     75.62s CPU     75.64s WALL (     645 calls)
     fftw         :    120.37s CPU    120.38s WALL (    1023 calls)
 
     Parallel routines
 
     PWSCF        :  23m46.87s CPU  26m 1.17s WALL

 
   This run was terminated on:  16:30:31  20Dec2022            

=------------------------------------------------------------------------------=
   JOB DONE.
=------------------------------------------------------------------------------=
