
     Program PWSCF v.6.7MaX starts on 20Dec2022 at 16:18:49 

     This program is part of the open-source Quantum ESPRESSO suite
     for quantum simulation of materials; please cite
         "P. Giannozzi et al., J. Phys.:Condens. Matter 21 395502 (2009);
         "P. Giannozzi et al., J. Phys.:Condens. Matter 29 465901 (2017);
          URL http://www.quantum-espresso.org", 
     in publications or presentations arising from this work. More details at
     http://www.quantum-espresso.org/quote

     Parallel version (MPI), running on     1 processors

     MPI processes distributed on     1 nodes
     Reading input from ch3oh-gas-ensemble.in
Warning: card &CELL ignored
Warning: card / ignored

     Current dimensions of program PWSCF are:
     Max number of different atomic species (ntypx) = 10
     Max number of k-points (npk) =  40000
     Max angular momentum in pseudopotentials (lmaxx) =  3
     file O.pbe-nl-kjpaw_psl.1.0.0.UPF: wavefunction(s)  2S 2P renormalized
     file C.pbe-n-kjpaw_psl.1.0.0.UPF: wavefunction(s)  2S 2P renormalized
     file H.pbe-kjpaw_psl.1.0.0.UPF: wavefunction(s)  1S renormalized

     **************************************************************************
     Initializing libbeef V0.1.2 with the BEEF-vdW functional.
     Citation: Wellendorff et al., PRB 85, 235149 (2012).
     **************************************************************************


     IMPORTANT: XC functional enforced from input :
     Exchange-correlation= BEEF-VDW
                           (   1   4  43  14   2   0   0)
     Any further DFT definition will be discarded
     Please, verify this is what you really want


     gamma-point specific algorithms are used

     Subspace diagonalization in iterative solution of the eigenvalue problem:
     a serial algorithm will be used

 
     G-vector sticks info
     --------------------
     sticks:   dense  smooth     PW     G-vecs:    dense   smooth      PW
     Sum       33787   33787   8447              4587241  4587241  573563
 


     bravais-lattice index     =            0
     lattice parameter (alat)  =      41.1011  a.u.
     unit-cell volume          =   73063.4323 (a.u.)^3
     number of atoms/cell      =            6
     number of atomic types    =            3
     number of electrons       =        14.00
     number of Kohn-Sham states=           11
     kinetic-energy cutoff     =      60.0000  Ry
     charge density cutoff     =     240.0000  Ry
     scf convergence threshold =      1.0E-06
     mixing beta               =       0.7000
     number of iterations used =            8  local-TF  mixing
     Exchange-correlation= BEEF-VDW
                           (   1   4  43  14   2   0   0)

     celldm(1)=  41.101101  celldm(2)=   0.000000  celldm(3)=   0.000000
     celldm(4)=   0.000000  celldm(5)=   0.000000  celldm(6)=   0.000000

     crystal axes: (cart. coord. in units of alat)
               a(1) = (   1.000000   0.000000   0.000000 )  
               a(2) = (   0.000000   1.047091   0.000000 )  
               a(3) = (   0.000000   0.000000   1.004975 )  

     reciprocal axes: (cart. coord. in units 2 pi/alat)
               b(1) = (  1.000000  0.000000  0.000000 )  
               b(2) = (  0.000000  0.955027  0.000000 )  
               b(3) = (  0.000000  0.000000  0.995050 )  


     PseudoPot. # 1 for O  read from file:
     /users/bkreitz1/quantum-espresso/potentials/O.pbe-nl-kjpaw_psl.1.0.0.UPF
     MD5 check sum: eef08af8b58d9ec80f8fdb78829eb7cf
     Pseudo is Projector augmented-wave + core cor, Zval =  6.0
     Generated using 'atomic' code by A. Dal Corso  v.6.7MaX
     Shape of augmentation charge: PSQ
     Using radial grid of 1095 points,  4 beta functions with: 
                l(1) =   0
                l(2) =   0
                l(3) =   1
                l(4) =   1
     Q(r) pseudized with 0 coefficients 


     PseudoPot. # 2 for C  read from file:
     /users/bkreitz1/quantum-espresso/potentials/C.pbe-n-kjpaw_psl.1.0.0.UPF
     MD5 check sum: a169b0ebad56f5ec0d79c4633f80bf22
     Pseudo is Projector augmented-wave + core cor, Zval =  4.0
     Generated using 'atomic' code by A. Dal Corso  v.6.7MaX
     Shape of augmentation charge: PSQ
     Using radial grid of 1073 points,  4 beta functions with: 
                l(1) =   0
                l(2) =   0
                l(3) =   1
                l(4) =   1
     Q(r) pseudized with 0 coefficients 


     PseudoPot. # 3 for H  read from file:
     /users/bkreitz1/quantum-espresso/potentials/H.pbe-kjpaw_psl.1.0.0.UPF
     MD5 check sum: ae98473e6dc62675f0d0baffdab24f65
     Pseudo is Projector augmented-wave, Zval =  1.0
     Generated using 'atomic' code by A. Dal Corso  v.6.7MaX
     Shape of augmentation charge: PSQ
     Using radial grid of  929 points,  2 beta functions with: 
                l(1) =   0
                l(2) =   0
     Q(r) pseudized with 0 coefficients 


     atomic species   valence    mass     pseudopotential
        O              6.00    15.99900     O ( 1.00)
        C              4.00    12.01100     C ( 1.00)
        H              1.00     1.00800     H ( 1.00)

     No symmetry found



   Cartesian axes

     site n.     atom                  positions (alat units)
         1           O   tau(   1) = (   0.5401277   0.4993158   0.4594804  )
         2           C   tau(   2) = (   0.5077764   0.5431726   0.4965570  )
         3           H   tau(   3) = (   0.5089425   0.5308264   0.5453778  )
         4           H   tau(   4) = (   0.5313566   0.5869378   0.4906696  )
         5           H   tau(   5) = (   0.4599012   0.5487329   0.4820161  )
         6           H   tau(   6) = (   0.5197015   0.4601613   0.4638553  )

     number of k points=     1  Gaussian smearing, width (Ry)=  0.0050
                       cart. coord. in units 2pi/alat
        k(    1) = (   0.0000000   0.0000000   0.0000000), wk =   2.0000000

     Dense  grid:  2293621 G-vectors     FFT dimensions: ( 216, 216, 216)

     Estimated max dynamical RAM per process >       3.72 GB

     Initial potential from superposition of free atoms

     starting charge   13.99992, renormalised to   14.00000

     negative rho (up, down):  1.569E-02 0.000E+00


     %%%%%%%%%%%%%%%%%%%%%%%%%%%%%%%%%%%%%%%%%%%%%%%%%%%%%%%%%%%%%%%%%%%%%%%%
     %                                                                      %
     % You are using vdW-DF, which was implemented by the Thonhauser group. %
     % Please cite the following two papers that made this development      %
     % possible and the two reviews that describe the various versions:     %
     %                                                                      %
     %   T. Thonhauser et al., PRL 115, 136402 (2015).                      %
     %   T. Thonhauser et al., PRB 76, 125112 (2007).                       %
     %   K. Berland et al., Rep. Prog. Phys. 78, 066501 (2015).             %
     %   D.C. Langreth et al., J. Phys.: Condens. Matter 21, 084203 (2009). %
     %                                                                      %
     %                                                                      %
     % If you are calculating the stress with vdW-DF, please also cite:     %
     %                                                                      %
     %   R. Sabatini et al., J. Phys.: Condens. Matter 24, 424209 (2012).   %
     %                                                                      %
     %%%%%%%%%%%%%%%%%%%%%%%%%%%%%%%%%%%%%%%%%%%%%%%%%%%%%%%%%%%%%%%%%%%%%%%%


     Starting wfcs are   12 randomized atomic wfcs
     Checking if some PAW data can be deallocated... 

     total cpu time spent up to now is       77.1 secs

     Self-consistent Calculation

     iteration #  1     ecut=    60.00 Ry     beta= 0.70
     Davidson diagonalization with overlap
     ethr =  1.00E-02,  avg # of iterations =  5.0

     negative rho (up, down):  1.148E-02 0.000E+00

     total cpu time spent up to now is      117.5 secs

     total energy              =     -66.38049132 Ry
     estimated scf accuracy    <       0.72538320 Ry

     iteration #  2     ecut=    60.00 Ry     beta= 0.70
     Davidson diagonalization with overlap
     ethr =  5.18E-03,  avg # of iterations =  2.0

     negative rho (up, down):  7.562E-03 0.000E+00

     total cpu time spent up to now is      155.6 secs

     total energy              =     -66.36319134 Ry
     estimated scf accuracy    <       0.15321102 Ry

     iteration #  3     ecut=    60.00 Ry     beta= 0.70
     Davidson diagonalization with overlap
     ethr =  1.09E-03,  avg # of iterations =  5.0

     negative rho (up, down):  5.971E-03 0.000E+00

     total cpu time spent up to now is      195.6 secs

     total energy              =     -66.37116270 Ry
     estimated scf accuracy    <       0.02968843 Ry

     iteration #  4     ecut=    60.00 Ry     beta= 0.70
     Davidson diagonalization with overlap
     ethr =  2.12E-04,  avg # of iterations =  5.0

     negative rho (up, down):  2.093E-02 0.000E+00

     total cpu time spent up to now is      236.6 secs

     total energy              =     -66.36659921 Ry
     estimated scf accuracy    <       0.01347431 Ry

     iteration #  5     ecut=    60.00 Ry     beta= 0.70
     Davidson diagonalization with overlap
     ethr =  9.62E-05,  avg # of iterations =  6.0

     negative rho (up, down):  9.618E-02 0.000E+00

     total cpu time spent up to now is      279.3 secs

     total energy              =     -66.36747841 Ry
     estimated scf accuracy    <       0.00550327 Ry

     iteration #  6     ecut=    60.00 Ry     beta= 0.70
     Davidson diagonalization with overlap
     ethr =  3.93E-05,  avg # of iterations =  5.0

     negative rho (up, down):  9.588E-02 0.000E+00

     total cpu time spent up to now is      320.8 secs

     total energy              =     -66.36760179 Ry
     estimated scf accuracy    <       0.00152163 Ry

     iteration #  7     ecut=    60.00 Ry     beta= 0.70
     Davidson diagonalization with overlap
     ethr =  1.09E-05,  avg # of iterations =  6.0

     negative rho (up, down):  9.566E-02 0.000E+00

     total cpu time spent up to now is      361.4 secs

     total energy              =     -66.36706712 Ry
     estimated scf accuracy    <       0.00091213 Ry

     iteration #  8     ecut=    60.00 Ry     beta= 0.70
     Davidson diagonalization with overlap
     ethr =  6.52E-06,  avg # of iterations =  8.0

     negative rho (up, down):  6.213E-02 0.000E+00

     total cpu time spent up to now is      403.5 secs

     total energy              =     -66.36635808 Ry
     estimated scf accuracy    <       0.00029850 Ry

     iteration #  9     ecut=    60.00 Ry     beta= 0.70
     Davidson diagonalization with overlap
     c_bands:  2 eigenvalues not converged
     ethr =  2.13E-06,  avg # of iterations = 20.0

     negative rho (up, down):  4.969E-02 0.000E+00

     total cpu time spent up to now is      449.7 secs

     total energy              =     -66.36615287 Ry
     estimated scf accuracy    <       0.00012831 Ry

     iteration # 10     ecut=    60.00 Ry     beta= 0.70
     Davidson diagonalization with overlap
     c_bands:  1 eigenvalues not converged
     ethr =  9.16E-07,  avg # of iterations = 20.0

     negative rho (up, down):  3.469E-02 0.000E+00

     total cpu time spent up to now is      494.1 secs

     total energy              =     -66.36606356 Ry
     estimated scf accuracy    <       0.00005333 Ry

     iteration # 11     ecut=    60.00 Ry     beta= 0.70
     Davidson diagonalization with overlap
     ethr =  3.81E-07,  avg # of iterations = 14.0

     negative rho (up, down):  2.996E-02 0.000E+00

     total cpu time spent up to now is      536.9 secs

     total energy              =     -66.36608269 Ry
     estimated scf accuracy    <       0.00002111 Ry

     iteration # 12     ecut=    60.00 Ry     beta= 0.70
     Davidson diagonalization with overlap
     ethr =  1.51E-07,  avg # of iterations =  2.0

     negative rho (up, down):  2.457E-02 0.000E+00

     total cpu time spent up to now is      574.7 secs

     total energy              =     -66.36608279 Ry
     estimated scf accuracy    <       0.00001213 Ry

     iteration # 13     ecut=    60.00 Ry     beta= 0.70
     Davidson diagonalization with overlap
     ethr =  8.66E-08,  avg # of iterations =  8.0

     negative rho (up, down):  2.208E-02 0.000E+00

     total cpu time spent up to now is      615.5 secs

     total energy              =     -66.36608872 Ry
     estimated scf accuracy    <       0.00000448 Ry

     iteration # 14     ecut=    60.00 Ry     beta= 0.70
     Davidson diagonalization with overlap
     ethr =  3.20E-08,  avg # of iterations =  2.0

     negative rho (up, down):  2.145E-02 0.000E+00

     total cpu time spent up to now is      654.2 secs

     total energy              =     -66.36609178 Ry
     estimated scf accuracy    <       0.00000158 Ry

     iteration # 15     ecut=    60.00 Ry     beta= 0.70
     Davidson diagonalization with overlap
     ethr =  1.13E-08,  avg # of iterations =  6.0

     negative rho (up, down):  2.087E-02 0.000E+00

     total cpu time spent up to now is      683.4 secs

     End of self-consistent calculation

          k = 0.0000 0.0000 0.0000 (286782 PWs)   bands (ev):

   -25.8105 -17.2591 -12.7551 -10.9553 -10.6263  -8.3895  -6.6516  -1.1536
    -0.5676  -0.2730  -0.1545

     the Fermi energy is    -3.2594 ev

!    total energy              =     -66.36609313 Ry

     total all-electron energy =      -232.977068 Ry
     estimated scf accuracy    <       0.00000037 Ry
     smearing contrib. (-TS)   =      -0.00000000 Ry
     internal energy E=F+TS    =     -66.36609313 Ry

     The total energy is F=E-TS. E is the sum of the following terms:
     one-electron contribution =    -147.27616967 Ry
     hartree contribution      =      76.17159540 Ry
     xc contribution           =     -15.62421323 Ry
     ewald contribution        =      37.03982595 Ry
     one-center paw contrib.   =     -16.67713159 Ry

     convergence has been achieved in  15 iterations

     negative rho (up, down):  2.087E-02 0.000E+00

     Forces acting on atoms (cartesian axes, Ry/au):

     atom    1 type  1   force =    -0.00294454   -0.00186354    0.00023467
     atom    2 type  2   force =     0.00213863    0.00246175    0.00285855
     atom    3 type  3   force =    -0.00075558    0.00006710   -0.00028627
     atom    4 type  3   force =     0.00037229   -0.00002696   -0.00057814
     atom    5 type  3   force =    -0.00060274   -0.00090316   -0.00072996
     atom    6 type  3   force =     0.00179194    0.00026481   -0.00149884

     Total force =     0.006275     Total SCF correction =     0.000207

     negative rho (up, down):  2.087E-02 0.000E+00

     negative rho (up, down):  2.087E-02 0.000E+00

     negative rho (up, down):  2.087E-02 0.000E+00

     negative rho (up, down):  2.087E-02 0.000E+00

     negative rho (up, down):  2.087E-02 0.000E+00

     negative rho (up, down):  2.087E-02 0.000E+00

     negative rho (up, down):  2.087E-02 0.000E+00

     negative rho (up, down):  2.087E-02 0.000E+00

     negative rho (up, down):  2.087E-02 0.000E+00

     negative rho (up, down):  2.087E-02 0.000E+00

     negative rho (up, down):  2.087E-02 0.000E+00

     negative rho (up, down):  2.087E-02 0.000E+00

     negative rho (up, down):  2.087E-02 0.000E+00

     negative rho (up, down):  2.087E-02 0.000E+00

     negative rho (up, down):  2.087E-02 0.000E+00

     negative rho (up, down):  2.087E-02 0.000E+00

     negative rho (up, down):  2.087E-02 0.000E+00

     negative rho (up, down):  2.087E-02 0.000E+00

     negative rho (up, down):  2.087E-02 0.000E+00

     negative rho (up, down):  2.087E-02 0.000E+00

     negative rho (up, down):  2.087E-02 0.000E+00

     negative rho (up, down):  2.087E-02 0.000E+00

     negative rho (up, down):  2.087E-02 0.000E+00

     negative rho (up, down):  2.087E-02 0.000E+00

     negative rho (up, down):  2.087E-02 0.000E+00

     negative rho (up, down):  2.087E-02 0.000E+00

     negative rho (up, down):  2.087E-02 0.000E+00

     negative rho (up, down):  2.087E-02 0.000E+00

     negative rho (up, down):  2.087E-02 0.000E+00

     negative rho (up, down):  2.087E-02 0.000E+00

     negative rho (up, down):  2.087E-02 0.000E+00

     negative rho (up, down):  2.087E-02 0.000E+00

     negative rho (up, down):  2.087E-02 0.000E+00

     negative rho (up, down):  2.087E-02 0.000E+00
 BEEFens 2000 ensemble energies
             -0.116911329964488E+01
             -0.364986297883254E-01
             -0.240804586222751E+00
              0.800111757987124E+00
             -0.380223349998339E+00
             -0.286337942561227E+00
             -0.859204481850005E+00
             -0.176994594030529E+01
             -0.637465443551953E+00
             -0.689256966107301E+00
             -0.644108484324392E+00
              0.925580497899465E-01
              0.572755843029480E-01
             -0.747738724363396E-01
              0.725616099393993E-01
              0.852585876991400E+00
             -0.372367367532400E+00
             -0.194612708441859E+00
              0.428877927467836E+00
             -0.200876385790010E+01
              0.101817078118536E+01
             -0.347547976824782E+00
             -0.117394220485667E+00
             -0.165171273910843E+00
              0.418861343786041E-01
             -0.109295474811422E+00
              0.160933532164457E+01
             -0.391292464376372E+00
             -0.153324812065662E+00
             -0.101620620560034E+01
              0.126739786449166E+01
             -0.918008975299336E-01
             -0.762207934609565E+00
              0.334911071495656E+00
             -0.517307085461232E-01
              0.512642698510660E+00
              0.258010665269417E-01
              0.183589500037940E-04
              0.665950684632391E+00
             -0.183014943627982E+01
              0.998333866791464E+00
              0.209410488969129E+00
             -0.210221839210938E+00
             -0.545167708597544E+00
              0.218478846509964E+00
             -0.308072851140716E+00
              0.921216929483258E+00
              0.642823460162687E+00
             -0.355902890901538E+00
             -0.581219944035002E+00
             -0.550424731577522E+00
             -0.672959672849250E+00
              0.391236241061576E+00
             -0.961457165113403E+00
              0.290114499197001E+00
              0.110297794840448E+01
              0.135215480735676E+01
              0.579475078129306E+00
              0.316073438134501E+00
              0.578898699013203E+00
              0.165130943275765E+01
              0.321609974788883E+00
             -0.100578572596916E+01
             -0.180373365477367E+00
             -0.537065094560278E+00
              0.113919652662404E+01
             -0.133112495844408E+01
             -0.106905307420255E+01
             -0.598226805857179E+00
             -0.324051137851731E+00
             -0.725112276463777E+00
              0.502123375773181E+00
              0.248975843357982E+00
              0.286870830427253E+00
             -0.692969942440953E+00
             -0.645527459402888E+00
             -0.105788743072784E+01
              0.588692116501722E+00
             -0.615433750106936E+00
              0.565402036873362E+00
             -0.137743123517701E+00
             -0.524998841610291E+00
             -0.932603541074184E+00
             -0.275245261614136E+00
             -0.310524510564889E+00
             -0.281867856867284E+00
              0.703242522426589E+00
              0.139414514480249E+01
             -0.821778492834117E+00
             -0.145279357489444E+01
             -0.333622091991795E+00
              0.199045832020023E+01
             -0.100452425972524E+01
              0.558956453941822E+00
             -0.205018050063618E+00
             -0.109008889154163E+01
              0.507836623071708E+00
              0.560417128743137E+00
             -0.259532995442054E+00
              0.515857889368570E+00
             -0.462078622664006E+00
             -0.109672848869613E+01
              0.181828952585649E+01
              0.827468373799867E+00
              0.392317690664940E+00
              0.226716928821340E+00
              0.401349359726969E+00
              0.148016986873704E+01
             -0.484881013168077E+00
              0.416936389045357E-01
             -0.252431559944324E+01
              0.341413224686522E+00
             -0.120846558122991E+01
              0.221245811245109E+00
              0.389393372049631E+00
             -0.663976064768153E+00
             -0.914567639512318E+00
              0.541486601190808E-01
             -0.554592443886070E+00
              0.803178312227784E+00
             -0.811528340436539E+00
             -0.149394032393865E+00
             -0.700335981674634E+00
             -0.597052312495050E-01
              0.759277481163676E-01
              0.395207829336435E+00
             -0.700235511229330E-02
             -0.118286215855090E+00
              0.119862026803908E+01
              0.166639808303942E+01
              0.895198166140864E+00
              0.119879712967388E+01
             -0.248058142198002E+00
              0.150487304509891E+00
              0.936734270541960E+00
              0.805163645464200E-01
             -0.137804660164357E+01
             -0.790574496006768E+00
             -0.878432040204435E+00
             -0.535596371918837E+00
              0.454839398196745E+00
             -0.220919502329030E+01
             -0.214516965297773E+00
              0.837643456581715E+00
             -0.740447550632623E+00
             -0.532706482388628E+00
              0.103161442428959E+01
              0.898316369304220E+00
             -0.507960977556466E+00
              0.579286669883426E+00
             -0.449429483790070E+00
              0.692238132920619E+00
              0.141735887020739E+00
              0.201063598917615E+00
             -0.148910547927361E+01
             -0.872560646079537E+00
             -0.159692242152643E+00
             -0.567965741800893E-01
             -0.771395264883136E+00
              0.201211528427525E+01
             -0.209710055667957E+00
             -0.483935235337362E+00
              0.724647879223626E+00
             -0.816581625534936E+00
             -0.679254580388126E+00
              0.581620894553922E+00
              0.213804139618050E+00
              0.179554208585062E+00
              0.280088827027312E+00
             -0.194228504891875E+00
              0.180193077258487E+00
              0.106616270234451E+01
             -0.500149522555838E+00
              0.399777167429688E+00
              0.160825673123443E+01
              0.564478606693631E+00
             -0.733517951591516E-01
             -0.363342965266590E+00
              0.281017546441710E+01
             -0.450312776162433E+00
              0.707757713110579E+00
              0.556411658330567E+00
              0.515333463519738E+00
              0.169883115362321E+01
              0.836113240498539E+00
             -0.102132738064572E+00
              0.446185156236941E+00
              0.941914741508517E+00
              0.700840387750102E+00
             -0.111183160566054E+01
              0.171061773396536E+01
             -0.156360287235333E+01
             -0.205234228786661E+00
              0.102403678696373E+01
              0.287891486631762E+00
              0.945679639528318E-01
              0.509851581530612E+00
              0.279654788446935E+00
              0.589412476418533E+00
             -0.113546654821345E+01
              0.666722123763410E-01
             -0.418507692101430E+00
             -0.110299128114364E+00
             -0.444174069840635E-01
             -0.230976577004483E+00
             -0.115489175918013E+00
              0.151056200647925E+01
             -0.859143366697186E-01
             -0.529040027021712E+00
             -0.238179773211269E-01
              0.257438153578728E+00
             -0.116485697201910E+01
             -0.985302093494598E+00
             -0.611677260654655E+00
             -0.113826214864380E+01
             -0.345142276855078E+00
             -0.732286047134330E+00
              0.334190135289810E+00
              0.295469876710492E-01
             -0.234814721311747E+00
             -0.149252349580886E+00
              0.932333904418856E-01
             -0.270817847476699E+00
              0.116819913353805E+01
             -0.158518938677500E+01
             -0.234215930898295E+00
             -0.255338785055234E+00
              0.282269779683640E+00
              0.374253457093319E+00
             -0.928986863191849E+00
             -0.226262744222442E+00
              0.811777922749998E+00
             -0.364936168951513E+00
              0.233712372477731E+00
              0.619764949182826E+00
             -0.713200385990742E-02
              0.209562442414004E+01
             -0.211762354691336E+00
             -0.639855722991094E+00
              0.478913528515523E-02
             -0.511131378568053E+00
              0.979724643597193E+00
             -0.872187508749337E+00
              0.252053521804877E+00
              0.908545753429039E+00
             -0.240457980155475E+00
              0.213332211010221E+01
              0.231127201602816E+01
             -0.128880258292509E+01
              0.103733718206103E+01
              0.419199521810244E+00
             -0.101475309096701E+01
              0.335502855608788E+00
              0.765848403448214E+00
              0.843553027940068E+00
              0.900972189479141E-01
              0.321073201405238E+00
              0.134693703127015E+01
             -0.417497017033139E+00
              0.159612763048563E+00
              0.122690179375395E+01
             -0.656952146985772E+00
             -0.428757832543325E+00
              0.107181468226608E+01
              0.559339725555385E+00
              0.140555496445577E+01
              0.611396080385822E+00
              0.242005495908685E+00
              0.450368479089033E+00
              0.773404610972538E+00
             -0.931794640122216E+00
              0.127883099607951E+00
              0.477486414584863E+00
              0.187662174878593E+00
              0.436076873258461E+00
             -0.112405538908372E+01
              0.590498297540446E+00
             -0.786507122873046E+00
             -0.558537449755514E+00
              0.339403549728468E+00
             -0.164797488919403E+00
              0.108161414075308E+01
             -0.276997419914781E+00
              0.526103944024760E+00
              0.541851839462987E+00
              0.140398327607395E+01
              0.948744837216095E+00
              0.932922463086284E+00
             -0.739813877451034E-01
             -0.198438982831194E+00
             -0.535370269926348E+00
              0.148219673031978E+01
              0.150343424605868E+01
              0.708475413014706E+00
             -0.511775686318043E+00
              0.898422665677202E+00
             -0.108963771909769E-01
              0.324313888096040E+00
              0.125815335204866E+01
             -0.506815230977038E-01
             -0.189082589292957E+00
             -0.396866717915039E+00
             -0.109862770246523E+01
              0.175055818361650E+01
              0.911732489327965E+00
             -0.117197058926167E+01
             -0.391610772132592E+00
              0.458227461726836E+00
             -0.202634685967240E+00
              0.118955066246856E+01
              0.288679474125379E+00
              0.147402337727425E+01
              0.534289854851261E+00
             -0.436243795905461E+00
              0.338894212148954E+00
             -0.129873594306486E+00
             -0.466815763550604E+00
              0.315590021122770E+00
              0.307142051198502E+00
              0.162227067529207E+01
              0.138202249886655E+01
              0.103461123187524E+01
              0.123475554552670E+01
              0.121470811539500E+00
             -0.468925979685876E+00
              0.238782673824706E+00
             -0.611112073101476E+00
             -0.101728112289117E+01
             -0.103619625260154E+01
             -0.583271084732578E+00
             -0.196848596843786E+01
             -0.667982377359861E+00
             -0.156746524841206E+01
              0.363183400630181E+00
             -0.820927406181165E+00
              0.918058866303765E+00
             -0.177506244581994E+01
             -0.538454170806120E+00
              0.724703336093374E+00
              0.397892679959945E+00
             -0.163560387236216E+01
              0.974727032399283E+00
             -0.517099869838585E+00
              0.100580678117328E+01
             -0.518473263467016E+00
             -0.142184494526650E+01
              0.329603948308557E+00
             -0.119453939497836E+01
             -0.761659790908000E-01
             -0.163165450775255E-01
              0.764930203001958E+00
              0.228207840507338E+01
             -0.788782730506417E+00
             -0.690290016690665E+00
             -0.121122431853571E+00
             -0.146845081991649E+00
             -0.145423068074968E+01
             -0.103927338607649E+01
              0.919470552882623E+00
             -0.337735591555058E+00
              0.392456485654067E+00
             -0.896298078371265E+00
             -0.280850082776769E+00
             -0.762877131999848E+00
              0.874936278864483E+00
              0.249593253266978E+00
             -0.444308393008450E+00
             -0.311387257967402E+00
              0.235064160645208E+00
             -0.144095364359923E+00
              0.727510822519241E+00
             -0.487366477195973E+00
              0.184923173761401E+00
              0.602657145274418E+00
              0.239690072302817E+00
             -0.419672963837851E+00
              0.282266351127909E+01
              0.106545875990958E+01
              0.180245740571052E+00
              0.117822909205797E+00
             -0.109504920378236E+01
              0.598688818728598E+00
             -0.141184844474869E+01
             -0.621572261248065E+00
             -0.108765124727175E+01
             -0.323603515515678E+00
              0.106944331226705E+01
             -0.105312100168138E+01
              0.466659428002484E+00
             -0.698260642831139E-01
              0.305907422332394E-01
             -0.573996501941705E+00
             -0.753657092868879E+00
             -0.103202642342879E+00
             -0.625179477929638E+00
             -0.419994567512616E+00
             -0.712871930856379E+00
             -0.983954347406056E-01
             -0.577489394758161E+00
             -0.886769585811934E+00
              0.403920159328994E+00
             -0.234358986906348E+00
              0.424489918963924E+00
              0.163841284639504E+00
             -0.136650103144992E+01
             -0.933877655924334E+00
             -0.896991829517517E+00
              0.596041652052669E+00
             -0.112723822990536E+00
             -0.113235776317160E+01
              0.102268645535148E+01
             -0.776994479237318E+00
              0.105221272472726E+01
             -0.556950875693515E+00
             -0.894327959433872E+00
              0.466321631922897E+00
             -0.132517971759784E+01
             -0.581031961186291E+00
              0.108136892373655E+01
              0.370227150249431E+00
             -0.765200799017354E+00
              0.100927350143513E+01
             -0.292560455611916E+00
             -0.663654404694263E+00
             -0.549611660132793E+00
             -0.952064859227630E+00
              0.455555784925000E+00
             -0.158436499012181E+01
             -0.140244904844357E+01
             -0.133652027899387E+00
             -0.526108195629224E+00
             -0.109769416516445E+01
              0.138744367393275E+01
              0.250326291848358E+01
             -0.408113225575594E+00
             -0.586635961652737E-01
             -0.111043959669698E+01
              0.120145811393377E+01
              0.395805980756640E+00
             -0.358286905605935E+00
             -0.667351010616111E+00
              0.263560358377552E+00
             -0.109712965871587E+01
             -0.197747005871960E+00
             -0.158410345989853E+01
              0.607558593223118E+00
              0.225342731077104E+00
             -0.987336914872632E-01
             -0.196731045772530E+00
             -0.742382765009847E+00
             -0.231727159955541E+00
              0.247663755559034E+01
             -0.285396952609764E+00
             -0.869567495007843E+00
             -0.125210737588808E+01
              0.250563508582350E+00
             -0.684134170246472E+00
              0.165589766712475E+00
              0.603007750628265E+00
              0.848560136346692E-01
              0.653075958452727E+00
              0.324767252566216E+00
              0.107306493864045E+01
              0.469461580896242E+00
             -0.654386407366335E+00
              0.961982420495676E+00
              0.632606339673998E+00
              0.233070336295092E+00
              0.677666472069740E+00
             -0.550645706540404E+00
              0.130149618194171E+01
              0.460161967023755E+00
             -0.628347849873363E+00
             -0.104838486615751E+00
             -0.295738135694858E+00
              0.292483189402040E+00
             -0.483245098531209E+00
             -0.198830753692342E+00
             -0.231249421576885E+00
              0.147932329105740E+01
              0.106039997445602E+01
             -0.119998159925492E+01
             -0.134010465738827E+00
             -0.927620065749079E+00
             -0.249642653873792E+00
             -0.389074155607093E+00
              0.196719344220761E+00
             -0.705635490787312E-01
             -0.509525359395946E+00
              0.292320960039648E+00
             -0.166606119806264E+00
             -0.143992456946457E+00
              0.159055686418829E+01
              0.284527073264102E+00
             -0.150579162630965E+01
             -0.711626016775146E+00
              0.173020463555858E+01
              0.423104119231479E+00
             -0.151340900092331E+00
              0.200284482128036E+01
             -0.325767520146986E+00
             -0.142818469074855E+00
             -0.212234851258938E+00
              0.286166342099241E+00
              0.588335440045129E+00
              0.508625606543087E-01
              0.521090001404238E+00
             -0.214332002809354E+00
             -0.705904235934399E+00
             -0.704086883998943E+00
             -0.887089894233487E+00
              0.752721153555330E+00
              0.275329573507701E+00
              0.688150572020424E+00
              0.292625331983888E+00
              0.163853761300101E+01
              0.361745277051871E+00
             -0.139358559658746E+01
             -0.600214887621167E+00
              0.719749326978842E-01
             -0.512477296870994E+00
              0.115429899628973E+01
             -0.289498802537475E+00
              0.314135420761120E+00
              0.100024713424533E+01
             -0.147151193421087E+01
              0.269673074719108E+01
              0.354796771435831E+00
              0.440896469931076E+00
              0.688852787418337E+00
              0.725471702993472E-01
             -0.519250453250448E-01
              0.596761696237881E+00
             -0.628963412026698E+00
              0.156481361163824E+01
              0.136692694660579E+01
             -0.699287195994817E+00
              0.318040230788723E+00
              0.131717942698798E+01
             -0.401799742130327E+00
              0.364578233782153E+00
              0.620554005072093E+00
              0.774161704682972E+00
             -0.135540000475853E+01
             -0.116726299165316E+00
             -0.504187835403838E+00
             -0.117543861217078E+00
             -0.122034677697777E+00
              0.104179536061034E+00
             -0.262783033448855E+00
             -0.535231109714562E+00
              0.281805139205502E+00
              0.126400593410519E+00
              0.973192347804692E+00
             -0.832127209342966E+00
              0.805974873589689E+00
              0.917281620782117E+00
             -0.191188686279014E+00
              0.138024908458588E+01
             -0.122614444045743E+01
             -0.188441432661443E+01
             -0.128143185344034E+00
             -0.119920920487630E+00
              0.168616009327565E-01
              0.140508821284738E+01
             -0.375182571339345E-01
              0.769957739318483E+00
              0.106597983393986E+01
              0.716704642697405E+00
             -0.920852809824826E-01
              0.110795104625786E+01
             -0.307767266673542E+00
             -0.700508793910117E+00
             -0.688181876407443E+00
              0.170317414086408E+00
              0.668478054565037E+00
             -0.620119451202545E-01
              0.636391626292236E+00
              0.728032933298284E-02
              0.103017428182338E+01
              0.318474991704974E+00
              0.139161858609254E+00
              0.249103410616591E-02
              0.543974937873654E+00
              0.750204274562266E+00
              0.289205426546667E+00
             -0.623520270665141E-01
             -0.982282771285218E+00
              0.543205413137679E+00
              0.377413810020775E+00
              0.623744205041715E+00
              0.559332953481099E+00
              0.659537456293054E+00
             -0.164776589984644E+00
              0.598926735130337E+00
             -0.534592908696560E+00
             -0.367149169587826E-01
             -0.972064123468157E+00
             -0.642305152899205E+00
              0.790759340017374E+00
             -0.161702781153299E+01
              0.457002643322291E+00
              0.256400250023743E+00
              0.157069668255233E+01
             -0.281158827599681E+00
              0.589664197996772E+00
             -0.219930263144892E+00
             -0.898337731841348E+00
             -0.123347650045759E+01
             -0.257662721962437E+00
             -0.166222638466274E+01
              0.177054174728649E+00
             -0.389364572264108E+00
              0.592718246225658E+00
              0.423824288615304E+00
             -0.508122715844769E+00
             -0.534847930496863E+00
              0.788087688202320E+00
             -0.102019615123697E+01
             -0.240451022688278E+00
             -0.297660568133689E+00
              0.467033682525884E+00
              0.532293391645204E-01
              0.745269583694248E-01
             -0.286122160961492E+00
              0.980224217028990E+00
             -0.104827258673106E+01
              0.142810920217560E+00
              0.108679302361611E+01
             -0.647526883108233E+00
              0.585825640296562E-01
              0.482644323372661E-02
             -0.121482596121671E+01
             -0.737320203061428E+00
             -0.484095904672134E-01
              0.556174938420954E+00
              0.616875453263636E+00
              0.894232056073818E-01
             -0.200438255422826E+00
              0.325219990667444E+00
             -0.754905609916970E+00
             -0.719803360307933E-01
             -0.961584711041205E+00
             -0.476381010922529E+00
              0.910887600346458E+00
             -0.557169830010858E+00
              0.126051949471079E+01
             -0.409161600789023E+00
              0.626467001804879E+00
              0.466196490215427E+00
             -0.109179548897899E+01
             -0.485626603795215E+00
              0.165825830310250E+00
             -0.736581875357092E+00
             -0.758790259010950E+00
             -0.160823441407746E+01
             -0.102560209001905E+01
             -0.907429044225943E+00
             -0.822895131874600E+00
              0.122013104902008E-01
              0.431266529536612E+00
              0.183123150160911E+00
              0.479800742853849E+00
             -0.107223742382952E+01
              0.228056295546361E+00
              0.489492939791244E+00
             -0.125922981803335E+01
             -0.105489833105954E+01
             -0.699636832297761E+00
             -0.572539383495922E+00
              0.280956517491154E+00
             -0.461905168741783E-01
             -0.784510634423344E+00
              0.540131911485540E+00
             -0.402483591180277E+00
              0.961875377287217E+00
             -0.159795754712952E+01
              0.114007645961195E+01
             -0.178290319598571E+00
             -0.802280522105864E+00
             -0.512744629107090E+00
             -0.201522130350851E-01
              0.881262971017426E+00
             -0.127621294633025E+01
             -0.237070290018840E+00
             -0.300186805493647E+00
              0.769069548233730E+00
              0.145606724532986E+01
             -0.181800714524199E+01
              0.168263405201288E+01
              0.728402074112354E+00
             -0.139481974844636E+01
             -0.589229374994509E+00
              0.142964974385212E+01
              0.104592480222304E+01
             -0.371662459647883E+00
             -0.133709485189121E+00
              0.320152967864474E+00
              0.140103944953342E+01
             -0.107556390740662E+01
              0.252812591674869E+00
             -0.128560370993991E+00
              0.508882164904438E+00
             -0.128675111434377E+01
             -0.563746810228554E-01
             -0.512627564924058E+00
              0.880807679688007E+00
              0.707404783381594E+00
             -0.161638137221389E+01
             -0.870003096553171E+00
             -0.387356829243449E+00
             -0.771301201501429E+00
             -0.238404666730815E+00
             -0.353483065821599E+00
              0.833498828153084E+00
              0.800502745239331E+00
             -0.551436358829944E-01
             -0.784835838931482E+00
             -0.155910234619450E+01
              0.911027147900148E+00
             -0.855622374100505E+00
             -0.660035879128185E+00
              0.138986709010265E+00
             -0.661319867084742E+00
             -0.742195720800079E+00
             -0.559315003559669E+00
             -0.908958561918732E+00
             -0.440898469712912E+00
             -0.906957694614219E+00
              0.102244281762505E+01
              0.110072537686428E+01
             -0.179101377842727E+00
             -0.392741774232963E+00
              0.484121730411111E-01
              0.766169359517026E+00
             -0.156889256893857E+01
             -0.433331154346707E+00
              0.929265495920614E+00
              0.127252809555055E+01
             -0.208904580842833E+00
              0.203129645741669E+00
              0.948828957013147E+00
              0.277163688050972E+00
              0.297653946837251E-02
             -0.702130748769463E+00
              0.274963218218666E+00
             -0.603220852432552E+00
             -0.184917469965588E+00
             -0.376584522100250E+00
             -0.271377539660500E+00
              0.419334303881594E+00
              0.145511482887054E+01
             -0.125413895342812E+00
              0.394769589491846E-01
             -0.167034785203965E+01
             -0.331030078889045E+00
             -0.663972765964536E+00
              0.129734539050101E-01
             -0.830565331597991E+00
              0.160958626331843E+01
              0.159312487758313E+01
              0.346100070714775E+00
             -0.401672631052425E+00
              0.315753847775674E+00
              0.401539672937375E+00
             -0.836169257232336E+00
             -0.150942698462282E+00
              0.326293869784882E+00
              0.232976341155643E+00
              0.931258869391673E+00
              0.738326045392323E+00
             -0.389760067257381E+00
              0.425762081184867E+00
             -0.177305146125311E+01
             -0.549307371772401E-01
              0.164217929603545E+01
              0.333405676601857E+00
             -0.287132714440546E-01
              0.493224989716881E+00
             -0.425158535985989E+00
              0.162703620492309E+01
             -0.345523526354936E+00
              0.143946172784221E+01
              0.690511270072346E+00
             -0.808886425632823E+00
              0.601998493303046E+00
             -0.514175487443940E+00
             -0.123095818188119E+01
             -0.145554126076468E+00
             -0.998211119275447E+00
             -0.963033582885616E+00
             -0.291732993294982E-01
              0.659879595995585E+00
             -0.226438534285617E+00
             -0.585796185394864E+00
              0.130244600587559E+00
             -0.121158119164758E+01
             -0.709366826146052E-01
             -0.159274753184357E+01
              0.995087558304330E+00
             -0.811204457952974E-01
             -0.889156461280414E+00
             -0.330342763752932E+00
              0.315753636360379E+00
             -0.667992746099009E+00
             -0.810822851176306E+00
              0.163101063274166E+01
             -0.501595744344465E+00
             -0.726691111181278E+00
              0.567641857250548E+00
             -0.364618612477735E+00
              0.100791265942700E+01
             -0.137057483781327E-01
              0.656939205355114E-01
              0.196742679375957E+01
             -0.196377010167507E+00
             -0.695605264073643E+00
             -0.839256987901425E+00
             -0.966509247191647E+00
             -0.675230215191180E+00
              0.537622468550239E+00
              0.529924276007092E+00
              0.516172813508661E+00
              0.136289710972329E+01
              0.791354607996020E-01
              0.398752303340587E+00
             -0.108708015412087E+01
              0.243772604738766E-01
             -0.329463209125572E+00
             -0.501629061227952E+00
             -0.798990232581929E-01
              0.605087014621868E+00
              0.693875804283731E+00
             -0.402290903408866E-01
              0.209859328808085E+00
              0.519793245140856E+00
              0.659811454904837E+00
             -0.411154182700339E+00
             -0.174151140256942E+00
              0.170961721270104E-01
             -0.480501603261994E+00
             -0.908296353831464E-01
             -0.677762816498091E+00
              0.141003823063490E+01
              0.111885725967153E+01
             -0.314154389109884E+00
              0.279691182416391E+00
             -0.960004682434294E-01
             -0.538469520831013E+00
              0.668518256776254E+00
             -0.169904368727863E+00
              0.651136519558094E+00
             -0.885158827226415E+00
              0.322265273931795E+00
             -0.144424340795904E+00
             -0.989155925373337E+00
             -0.441982197423048E+00
              0.436001591456256E+00
             -0.177968203332227E+01
              0.694988683239199E+00
              0.860315080687146E+00
             -0.171558716660575E+00
             -0.127958750292144E+00
             -0.593282433081725E-01
              0.485501848227818E+00
             -0.614976972991368E+00
              0.573912089632626E+00
              0.585099288933901E+00
             -0.171479214817079E+01
             -0.657831759497423E+00
              0.435837141541549E+00
             -0.231174273359057E+00
              0.856662927487229E+00
             -0.112124813209339E+01
             -0.145737893437730E+00
             -0.729798283460541E+00
             -0.235816503940002E+01
              0.144311195488185E+01
             -0.110331919139771E+01
             -0.121057334325829E+01
              0.119113574002419E+00
              0.235293267974877E+01
              0.116501707222400E+00
             -0.564918286499585E+00
             -0.149837324854429E-01
             -0.777764570860657E-01
             -0.159948041910570E+01
             -0.102404393340870E+01
              0.155886335273615E+01
             -0.203805601527982E+00
             -0.672319195088509E+00
              0.917847539096412E+00
             -0.600783284909837E+00
              0.623973572102910E+00
              0.895567022525669E+00
             -0.100127921316382E+01
             -0.512432671484515E+00
             -0.582336087644150E+00
             -0.294107483677687E+00
             -0.372298116412650E+00
             -0.306636499062952E+00
              0.349515443002637E+00
             -0.638776723753685E+00
              0.515813469807958E+00
              0.102655486046625E+01
             -0.158982731054584E+00
             -0.358359547518047E+00
              0.264916433110153E+00
              0.998440652225721E+00
              0.990112295461442E+00
              0.147794772515187E+00
             -0.170659820463175E+00
             -0.179527609541011E+00
             -0.974807074384504E+00
              0.736710279649214E+00
             -0.465701402576697E+00
              0.395863635316452E+00
             -0.251125192435078E+00
              0.491273459134184E+00
              0.311765902286156E+00
             -0.149607079909608E+01
             -0.479574860978317E+00
             -0.143331458617967E+01
             -0.716530968783152E+00
              0.935157113295448E-01
             -0.349294655989851E+00
              0.627185041516807E+00
             -0.512489029271179E+00
              0.502084419610092E-01
              0.134032745507801E+00
              0.132013415825719E+01
              0.677682388680600E+00
             -0.566288684542834E+00
             -0.249600304267057E-01
              0.272172866686908E+00
              0.678395624845526E+00
             -0.291166099976614E-02
              0.102179101526242E+01
              0.521668296910461E+00
              0.164151875816281E+01
              0.809285102944135E-01
              0.116467572807442E+01
             -0.491378136909595E+00
             -0.725366303892626E+00
              0.718755172958510E-01
              0.178169869476051E+00
              0.442129719459563E+00
             -0.318882755306060E+00
             -0.218617472174055E+00
              0.416251070007116E+00
             -0.857788977860384E+00
             -0.106310805027010E+01
              0.143393255703243E+01
             -0.118953753329887E+00
             -0.704039146143167E+00
             -0.933745323118551E-01
             -0.256496939960229E+00
              0.753306391681615E+00
              0.667686818829713E+00
             -0.366488844020529E+00
             -0.159566113205512E-01
             -0.485975277088391E+00
             -0.641424481907016E+00
             -0.458271533350993E+00
             -0.178105547545193E+01
             -0.736642697122614E-02
             -0.120848007590236E+01
             -0.106949113520265E+01
             -0.713396889690076E+00
              0.386407526404712E+00
             -0.715355115616705E+00
              0.420266171720371E+00
             -0.115894665967179E+01
             -0.220239032545866E-02
             -0.771337580052393E+00
              0.121347837254909E+00
              0.141876278140938E+00
              0.617388073572150E+00
             -0.372053041760077E+00
             -0.351506690071584E+00
              0.562381971311599E+00
              0.110168606882948E+01
              0.585117142949284E+00
              0.192829554243499E+00
             -0.134529410887090E+01
             -0.269132051673403E+00
             -0.508512336326746E+00
             -0.113936093097085E+01
              0.793097727117331E+00
             -0.625107405729592E+00
             -0.136317614847096E+00
             -0.486773760641713E+00
             -0.182750336951297E+01
              0.102285583917758E+01
             -0.327032078195884E+00
              0.714343889090470E+00
             -0.135979583172715E+01
              0.118966926891529E+01
              0.100381639264582E+00
             -0.491064934555610E+00
              0.160626292779197E+00
             -0.390421899983056E+00
             -0.118538906089954E+01
              0.325090453722142E+00
              0.661882761222579E+00
             -0.873670118205716E-02
             -0.628433454005151E+00
             -0.267862086420942E+00
              0.368972895657661E+00
              0.656494943962253E+00
              0.114144678583646E+01
              0.421196071994141E+00
             -0.421721484672211E+00
              0.177405035775698E+01
              0.419328722136839E+00
              0.835855812393030E+00
             -0.289186037421951E+00
              0.545919680343709E+00
              0.406435333333849E+00
             -0.113340986593487E+01
             -0.405267098443049E+00
             -0.724065287796800E+00
             -0.716807062396404E+00
             -0.201103504253982E+00
             -0.178320572942926E+00
             -0.805455957791350E+00
             -0.204859156367793E+01
             -0.496717409703656E+00
              0.273114327252394E+00
              0.998584789566479E-01
              0.255408917374120E+00
              0.765841970916593E+00
              0.226819612767923E+00
              0.573964894109353E+00
             -0.806691237705362E+00
              0.794679369062372E+00
             -0.743905285767565E+00
             -0.124772571306087E+01
              0.350005677342773E+00
             -0.743410197291372E+00
             -0.743164871598168E+00
             -0.291723056701275E+01
             -0.143751031546044E+00
              0.152810715677946E+01
              0.765016049809360E+00
             -0.189216280366988E+00
             -0.183671895441973E+00
              0.743524630390353E+00
              0.116619004447256E+01
             -0.718000887045972E+00
             -0.232847721588243E+00
             -0.646043231816761E+00
             -0.618760951056652E+00
             -0.563274619970704E+00
              0.223051392556892E+00
              0.129310552749168E+01
             -0.120017366175021E+01
             -0.987970716312518E+00
              0.573648250130461E-01
             -0.254451706041520E+00
             -0.334605215891598E+00
             -0.164853535754053E+01
              0.110554352106358E+01
              0.376879364584786E+00
              0.143480696545528E+00
              0.958564792242952E+00
             -0.584502432725699E+00
              0.619268249957926E+00
              0.527936851654399E+00
              0.543845662124012E-01
             -0.151817492987400E+00
              0.176075875207021E+00
             -0.277576721927188E+00
              0.930085953045910E+00
             -0.750986491653709E+00
              0.825475883218012E+00
              0.173765000254750E+00
              0.291246824992709E+00
              0.368544218870190E+00
             -0.147702663480347E+01
              0.163294514184227E+00
             -0.120924008713171E+01
             -0.890608221559498E+00
             -0.881355796782529E+00
             -0.937879376383566E+00
              0.192072847710740E-01
              0.325482252602344E+00
              0.902820156274226E+00
              0.144257774525616E+00
              0.264415631760473E+00
             -0.127964868014872E+01
             -0.517829385701828E+00
              0.593614840560355E+00
             -0.355815588009945E-01
             -0.511900937432261E-01
             -0.175195099141447E+00
              0.661935673697768E+00
             -0.166635771460189E+01
              0.245400887322789E+00
              0.407711867282651E+00
              0.725611265545818E+00
              0.685705541952413E+00
             -0.103933705634101E+01
              0.272940090389355E+00
              0.113560235163052E+00
              0.131680712820121E+00
              0.759919622310763E-01
             -0.371633682596013E+00
             -0.769653001119009E+00
              0.314752837102213E+00
              0.107430961721203E+01
             -0.488675661287488E-01
              0.241655384293106E+00
              0.218893562244132E+00
             -0.556044554888289E+00
             -0.572706388480176E+00
             -0.222643765267470E+01
             -0.712976642818775E+00
             -0.103925952543716E+01
             -0.132997929670221E+00
             -0.123037495719103E+01
              0.139137190512335E+01
             -0.610889636661058E+00
             -0.995297477806213E+00
             -0.288252677162307E+01
              0.123744287555170E+01
              0.265721172772608E+00
              0.122879172839610E+00
             -0.111430943146527E+01
              0.806349592936666E-01
             -0.284237926211576E+00
             -0.573748961711045E+00
              0.139568437439313E+00
              0.585934720554103E+00
              0.102435975963558E+00
             -0.351813834924238E+00
              0.465710649962556E-01
              0.168435332974424E-01
              0.222820291892383E+00
             -0.121952599187999E+01
              0.132584092894170E+01
             -0.756015859773720E+00
             -0.478625738717433E+00
             -0.904881744094705E+00
             -0.195444784270475E+01
              0.952155658532143E-01
             -0.101483127876169E+01
             -0.360953123070491E+00
              0.573742454139790E+00
             -0.475196964022862E+00
             -0.180964117648363E+00
             -0.226699099388779E+00
             -0.404189644033492E+00
              0.494414100130746E-01
              0.941577840211182E+00
             -0.945217858595573E+00
              0.186749871365513E+01
             -0.436535522360451E+00
              0.610872411778698E+00
             -0.290984930147861E+00
              0.230505873597760E+00
             -0.224825075031421E+00
              0.828682343766651E+00
              0.116297508933630E+01
              0.331276355101399E+00
              0.861225563918463E+00
             -0.560361577154544E+00
             -0.114487838118023E+00
             -0.451396071576571E+00
              0.115803688783999E+01
              0.100456417626291E+01
              0.735053215854499E+00
             -0.246679873355065E+00
             -0.475352430033121E+00
              0.443318746654034E+00
             -0.514009086083111E+00
             -0.270750686663209E+00
             -0.116916156222011E+00
             -0.631740759265418E+00
              0.912023813863184E+00
             -0.188773128757416E+00
              0.658801693534955E+00
              0.371650963446844E+00
              0.291298453366360E+00
             -0.628579999426881E+00
              0.494427094927653E+00
             -0.252749297070276E+00
             -0.135041129164025E+00
             -0.204695871306964E-01
             -0.906359122776067E+00
              0.143315357949527E+01
             -0.508457323167632E+00
              0.116893284816157E-01
              0.432166512267141E+00
              0.373670750589244E+00
              0.140100445694908E+01
             -0.402190917957831E+00
              0.138409279108128E+01
              0.122806339585085E+01
             -0.172692004405889E+01
              0.141266731517716E+00
             -0.341636596932148E+00
              0.203637215377739E+00
              0.858433950132897E-01
              0.365864731098695E+00
              0.117026435117846E+01
              0.177422098926891E+01
             -0.136290436223945E+01
              0.140353337366245E+01
             -0.180928358907121E+01
             -0.153822527942812E+01
             -0.253495253087139E+00
              0.240225570882036E-01
              0.142288639871579E+01
              0.619084780477863E+00
             -0.275267762077935E+00
             -0.155302975840909E+01
              0.122199282905377E+01
             -0.770517300518939E+00
              0.213968666082192E-01
             -0.847980844557550E-01
              0.237593485555413E+01
             -0.428848710141871E+00
             -0.192149866650173E+01
              0.557173480479825E+00
             -0.296051750497023E+01
              0.240752920402887E+00
             -0.702591920090812E+00
             -0.313143754255643E+00
             -0.481991126499330E+00
             -0.108307260942238E+01
              0.680839770559405E+00
             -0.649321069447314E+00
             -0.232929663916558E+00
             -0.138975004155867E+01
             -0.834879593259190E-01
             -0.971718494343504E+00
             -0.140250259551295E+01
             -0.199888590194926E+01
              0.160932384554794E+00
             -0.649823060295847E+00
              0.131382819432645E+00
             -0.229560686834672E+00
             -0.151220583905786E+01
             -0.116080331419897E+01
             -0.103601942185244E+01
             -0.104172964482064E+01
              0.955811177657592E+00
              0.137019758714429E+00
             -0.892371720944103E+00
             -0.441166804495978E+00
             -0.496758121054313E+00
              0.739310238656146E+00
             -0.578148840890273E+00
             -0.116124495669692E+00
             -0.542475265005836E+00
             -0.729738608801594E+00
             -0.741992597623377E+00
              0.748839730035209E+00
             -0.233858451580379E+00
             -0.165869097314481E+01
              0.143754201019387E+01
              0.841149640582528E+00
              0.731933703329988E-01
             -0.146346877231035E+01
             -0.137240782035459E+01
              0.122692907995901E+00
              0.281220784832605E-01
             -0.616150745930142E+00
             -0.827431911341230E+00
              0.583802071529432E+00
             -0.101249480300759E+00
              0.493147251612818E+00
              0.868423898513472E+00
              0.654599259576727E+00
              0.465918539473022E+00
              0.402557848197628E+00
             -0.412350476825314E+00
             -0.267226104751909E+00
             -0.328486702990338E+00
             -0.691523721210869E+00
             -0.877425516092311E+00
             -0.112279955597740E+01
             -0.665621256724337E+00
             -0.221767941111345E+00
             -0.138918608595639E+01
             -0.280062331836895E+00
              0.620990013462523E+00
             -0.149201034479634E+01
              0.640793724563075E+00
              0.507974624167155E+00
             -0.130051669338700E+01
             -0.102641394817090E+01
             -0.402023740472456E+00
              0.248437476128811E+00
             -0.753562905194679E+00
              0.136955201001406E+01
              0.120994899253760E+01
             -0.141132464292625E+01
              0.802814316033688E+00
              0.664208165277784E+00
              0.182613522464154E+00
              0.359138839901422E+00
             -0.773733268062116E+00
             -0.284781947485489E+00
              0.100306138431295E+00
              0.364522151908289E+00
              0.771240261713317E+00
             -0.998895224859217E+00
             -0.182515358914393E+00
              0.307852448129397E+00
              0.124589980867900E+00
             -0.615792847030896E+00
              0.340934822194882E+00
             -0.471309329288429E+00
             -0.321261360378600E+00
              0.227031306313386E-02
             -0.113078622404981E+01
             -0.267782403684436E-02
             -0.212146163534831E+00
             -0.271216261947747E+00
              0.242516008278059E+00
             -0.976181108989290E+00
              0.104287865730020E+01
             -0.404885209933183E+00
             -0.243232183129558E+01
             -0.158076446084270E+01
              0.645638847871653E+00
             -0.731041484079984E+00
             -0.390827042137156E+00
             -0.451138500286204E+00
             -0.337879390019145E+00
             -0.188861033985397E+01
             -0.497807798071381E-01
             -0.113769573148010E+01
             -0.590281349537552E+00
              0.393939381287447E+00
              0.142309422735992E+01
              0.686152290360525E-01
              0.465549700016172E-01
              0.109219220459501E+01
             -0.101704292681653E+01
              0.534614144975769E+00
              0.120546824923337E+00
             -0.933015316623441E+00
             -0.517064783156533E+00
              0.365020201293248E+00
              0.495115022202210E-01
              0.291723815125164E+00
              0.262469662677718E+00
             -0.428008862883900E+00
             -0.571668294304907E+00
             -0.910137951944591E+00
              0.899271799013989E+00
             -0.123653833803023E+01
             -0.912507959655088E+00
              0.266949528695589E+00
             -0.155846359121533E+01
              0.402286802111065E+00
              0.106936500426639E+01
             -0.202186737011965E+00
              0.330988159499638E+00
             -0.586347785274338E+00
             -0.399026945505915E+00
              0.192447648788528E+00
              0.659926595524529E+00
             -0.673748567063671E+00
              0.424088698266767E+00
             -0.261368136321315E+00
              0.789347476695079E-01
              0.364268426218793E+00
              0.212449138927012E+00
             -0.202752618197562E+00
             -0.169377596762450E-01
              0.247600821780200E+00
              0.506966251342458E+00
             -0.128854411832865E+01
             -0.132379740307549E-01
              0.983795241009236E+00
             -0.164533637990743E+01
              0.606363821942483E+00
             -0.209591837950406E+01
             -0.194647462089717E+00
             -0.264998426334957E+00
             -0.649341903555332E-01
             -0.211289213275585E+00
             -0.514041204383028E+00
             -0.160435876463159E+00
              0.257825416101039E+00
             -0.437120184325358E+00
              0.203887707639779E+00
              0.164923759473501E+01
             -0.106095264193237E+01
             -0.470848941258776E+00
              0.744849925776589E+00
              0.385393374298589E+00
              0.755956725011260E+00
              0.334082741291614E+00
              0.354906063403218E+00
             -0.267562988418208E+00
             -0.905733118854656E+00
             -0.812707954103684E+00
             -0.590029244238575E+00
              0.873592057148196E-01
             -0.766783991351012E+00
             -0.210797629408366E+00
              0.114823966369809E+00
              0.441393344016145E+00
             -0.125724479046134E+00
              0.106808989117889E+01
             -0.115442440328726E+01
             -0.386270487876121E-01
             -0.144017168417598E+00
              0.570514621953342E+00
             -0.800033332787959E+00
             -0.514271842628319E+00
              0.290224505571372E+00
              0.866943507382670E+00
              0.135333897594711E+01
              0.581352173462658E+00
              0.833304472919966E+00
             -0.464434486652208E+00
              0.115185795941114E+01
              0.115530898180961E+01
             -0.536600978959410E-01
              0.591050426328134E+00
              0.701824270537588E+00
             -0.378518744115901E+00
              0.223505716038378E+00
              0.120350576781963E+01
             -0.405005454579235E+00
             -0.147563699828741E+00
             -0.115521552444342E+01
              0.424389254336496E+00
             -0.248383947819448E+00
              0.384384671161428E+00
              0.482370131288352E-01
             -0.723027149272053E+00
              0.845495216732919E+00
              0.723753409559046E+00
             -0.552885832307119E+00
              0.302096062123810E+00
             -0.107254992471486E+01
             -0.997980607112362E+00
              0.451035894442045E+00
             -0.125166484326549E+01
             -0.621955682359202E+00
              0.403780865288716E-01
              0.156846361292272E+01
             -0.399538781402372E+00
             -0.194871581309998E+00
             -0.347314440010609E+00
              0.205813010336810E+01
              0.347708443888271E+00
             -0.765224591938320E+00
              0.127878400480813E+01
              0.113777552560107E+01
              0.598508620925163E+00
              0.144998925958849E+01
              0.155731061959431E+01
             -0.914113762247388E-01
             -0.542402064569848E+00
             -0.486892532798137E+00
              0.489206201375999E+00
              0.703568327871756E+00
             -0.123723043275539E+00
             -0.430614869314633E+00
             -0.105265161182093E+01
             -0.406670371818976E+00
             -0.850312967286220E+00
              0.604169203828208E+00
              0.309555843938210E+00
              0.108693914432531E+01
              0.222375702096120E+00
             -0.433043343424131E+00
             -0.160407925688638E+00
              0.735410820853720E+00
              0.199440386578095E+00
              0.110191947026612E+01
              0.102561164018820E+01
             -0.175830961490612E+00
             -0.145741123755331E+00
             -0.182766262642323E+01
              0.910363603432301E+00
             -0.296125108236183E-01
              0.102825346163365E+01
             -0.455090009006628E+00
             -0.119459054087626E+01
              0.345076102760795E+00
              0.131477066222799E+01
             -0.463297248089922E+00
              0.122593028177728E+01
             -0.131311597990429E+01
             -0.470278982381981E+00
             -0.155168273403064E+01
              0.326183782538597E+00
              0.115896416930718E+00
              0.130977176295277E+00
             -0.112915706880801E+01
              0.167320789511309E+01
              0.979082152890459E+00
              0.113659613127605E+00
             -0.950521154699816E+00
              0.372287258166268E+00
             -0.364178205421057E+00
             -0.253029294757829E+00
             -0.474476016164964E+00
              0.319904942685138E+00
             -0.279512090673831E+00
             -0.333228541596216E+00
              0.419813910940706E+00
              0.425948973748400E+00
             -0.163764998601255E+01
              0.357424970945608E+00
              0.120462561955688E+01
              0.776664555387441E+00
             -0.254130753204407E+00
             -0.165810805688529E-01
             -0.674205244207640E+00
              0.102920025321678E+01
              0.186368571176667E+00
             -0.651687549401032E-01
             -0.102656808534709E+00
              0.199495538827515E+01
             -0.105684864054856E+00
              0.454557280130217E+00
              0.134387752896952E+01
              0.177322597179241E+01
              0.109222174174728E+01
              0.735999914272009E+00
             -0.114139532251255E+01
             -0.842548190152662E+00
              0.662709170299707E+00
              0.550911723141523E-01
              0.562134524803352E+00
              0.236117235976208E+00
              0.117157528085855E+01
             -0.145192753510353E+01
             -0.899157819483606E+00
             -0.195543633394249E+00
             -0.158638295935601E+01
              0.338079362311493E+00
              0.812189121594422E+00
              0.586630627155937E-01
             -0.379686220655835E+00
              0.385153728205625E+00
              0.248026822900073E+01
              0.566773075606632E+00
              0.320845624866960E+00
             -0.880921874726409E+00
             -0.108778386860361E+01
             -0.253359654005201E+00
              0.508712760199303E+00
             -0.106777410650375E+00
              0.452280206239550E+00
              0.638822162663867E+00
             -0.115047501115148E+01
              0.491122331556738E+00
              0.664974314788292E+00
              0.105267044785832E+01
             -0.184709197166710E+00
              0.732150446855950E-01
             -0.129473847138756E+00
             -0.826324439588308E+00
             -0.133865376952511E+01
              0.140769578445545E+01
             -0.182548666500103E+00
             -0.985724857477733E+00
              0.128743835586778E+00
             -0.545778345693575E+00
              0.156735053097552E+01
             -0.403367407487222E+00
             -0.683518954530109E+00
              0.660178892441317E+00
             -0.272307612179596E+00
              0.846665682073866E+00
              0.798924165087289E-02
              0.171246119914471E+01
              0.934710743515865E+00
              0.185968508686730E+00
             -0.711066712477578E+00
              0.513105834555790E+00
             -0.992545066105451E+00
             -0.910459191790838E-01
              0.117913599383025E+01
             -0.461965497212272E+00
             -0.800377380892382E+00
             -0.406501671175460E+00
              0.950083142193003E+00
              0.222236304567340E+00
             -0.149905598688266E+01
              0.627521885737853E+00
              0.142924716271997E+00
              0.192291994194278E+00
             -0.887553450898661E+00
              0.175500445872204E+00
              0.633159754437933E+00
              0.862817713855844E+00
              0.116659602009091E+01
              0.629614013367244E+00
              0.145404756963194E+00
             -0.992308463132122E+00
             -0.766177866570753E+00
             -0.121175032099224E+01
             -0.234982715612896E+00
              0.624686137493788E+00
             -0.177463537999369E-01
              0.956602844493199E+00
             -0.579765790566473E+00
              0.319929748558928E+00
             -0.396585045972569E+00
             -0.483944036303353E+00
              0.106259033994544E+01
              0.100645133598704E+00
              0.112059007985192E+01
              0.975233482947235E-01
              0.376987595964238E+00
             -0.286570318925999E+00
              0.109985843563582E+01
             -0.270499228480961E+00
             -0.142309815188615E-01
             -0.142602740534776E+01
             -0.140670348386283E+00
              0.127695062132344E+01
              0.120095037052053E+01
              0.436946552567500E+00
             -0.272530873529915E+00
              0.735072284940275E-01
             -0.411473404855334E+00
             -0.310869922832661E+00
              0.161841634874997E+01
              0.121616859476941E+00
             -0.510880882782870E+00
             -0.195642709045750E+01
             -0.819876664764425E+00
             -0.685053525581233E+00
             -0.112898171394578E+01
             -0.108425500839619E+01
             -0.130601656279102E+01
             -0.817073552049057E+00
             -0.529811618133509E+00
             -0.860561750227695E+00
              0.807915615074100E+00
             -0.349825426697262E+00
             -0.160929025140073E+01
              0.766270901337652E+00
             -0.607315803276971E+00
             -0.144483363785775E+01
              0.184601176712025E+01
             -0.456173741949041E+00
              0.288328734784857E+00
              0.707038632282855E+00
              0.212583977950130E+00
              0.460940877324802E+00
              0.138350171853330E-01
              0.212840105479658E-01
             -0.224520239738381E+00
             -0.132740573670698E+01
              0.196781476247596E+00
             -0.221578394969867E+01
              0.128698487250252E+01
             -0.734243906164285E+00
             -0.323437602768841E+00
             -0.367463266337101E+00
              0.382984639790600E+00
             -0.307044060513032E+00
              0.532467534979604E+00
             -0.105860226246832E+01
              0.677577930620084E+00
              0.762753884869447E+00
              0.193881609543330E+00
              0.159107921015178E+00
              0.389583953929557E+00
              0.166968470137807E+00
              0.566035963798210E+00
             -0.891681446372532E-01
             -0.131018914875052E+01
              0.177087041114140E+00
             -0.621103717293187E+00
             -0.449202935850916E-01
              0.991328550469338E+00
             -0.146931948876130E+01
              0.299667161841484E-01
              0.541884345181911E-01
              0.169668567305979E+00
              0.562666274908583E+00
             -0.238399492511653E+00
              0.154160639029642E+01
              0.700416640355848E+00
             -0.274866459859598E+00
             -0.181529040828309E+00
              0.106705565946654E+00
              0.144351714153315E+01
             -0.907105859537683E+00
             -0.185479999351138E+01
              0.527627859916414E+00
             -0.134498300271610E+00
             -0.273604992448279E+00
              0.347163985503913E+00
              0.138802021901991E+01
              0.768343986864418E+00
             -0.317656762633615E+00
             -0.979816938365764E+00
             -0.221334256979384E+00
              0.504982776786635E+00
             -0.318273738215531E+00
             -0.138358611642098E+01
             -0.155387179387102E+00
             -0.176646446256132E+01
             -0.928550750342973E+00
              0.157083892472692E+01
             -0.944420742601117E+00
             -0.129390340889104E+01
             -0.978541490070852E+00
             -0.722065982449752E+00
              0.609536465848658E+00
              0.154456536926615E+01
             -0.159821855839208E+00
              0.491087555803900E+00
             -0.354495212781998E+00
             -0.123353824635228E+01
              0.953112317980211E+00
             -0.875963500583476E+00
              0.477926014242687E+00
              0.533093675100309E+00
             -0.276755106427771E+00
              0.703938119105324E+00
              0.716676051677048E+00
              0.216964716425224E+01
             -0.206993961776840E+00
             -0.999978231519201E+00
             -0.121775010901061E+01
             -0.333650262808426E+00
             -0.734228968831344E+00
              0.173175188382165E+01
             -0.831511736432650E+00
              0.178341960227560E+00
              0.578297682155648E-01
             -0.367841490773281E+00
             -0.154440188312052E+01
             -0.122373573858995E+00
              0.183008991494989E+01
              0.375400752855948E+00
              0.142030556115353E+00
             -0.104274405957256E+01
             -0.989700026230683E+00
             -0.306583652903438E+00
              0.831909221402498E+00
             -0.482538349311378E+00
              0.184969247566484E+01
             -0.838969697638770E+00
              0.340378366073919E+00
             -0.277684273815039E+00
             -0.112669127025428E+01
              0.121415095253006E+00
             -0.103301644085156E+01
             -0.134940871097162E+01
              0.180157590114955E+00
              0.263610459016332E-01
              0.888290310542842E+00
              0.483672235466691E+00
             -0.638843917514941E+00
              0.412526686610114E+00
             -0.158540016028773E+01
             -0.879771235712134E+00
              0.170906758251964E+01
              0.800971948854590E-01
             -0.117763831505842E+00
             -0.463577774552452E+00
              0.674247333956046E-03
             -0.207451676145046E+00
              0.165358520728670E+01
              0.746647160278416E+00
             -0.173290360730372E+00
             -0.260733261964097E-01
             -0.708587931487958E+00
             -0.249582775434974E+00
             -0.114972522612337E+01
              0.942376627429578E+00
              0.118380658692351E+00
              0.156542388330708E+00
              0.322298481498898E+00
             -0.243010800752945E+00
             -0.407965620063324E+00
              0.118202226079681E+00
             -0.201934321662352E+01
             -0.202700547895995E+00
             -0.158708987524786E+00
             -0.116768751065051E+00
              0.920914891031155E+00
              0.116548707942860E+01
              0.319898616898476E+00
             -0.170360863659528E+01
              0.117607021411214E+01
             -0.448117140297137E+00
             -0.677203028738829E+00
             -0.159580044031271E+01
             -0.523110964176161E+00
              0.112138568436770E+01
              0.598509777351115E+00
              0.302681222239734E+00
              0.631666500754092E+00
             -0.101782480509084E+01
             -0.880080525258287E+00
              0.114320119692467E+01
              0.763822420526776E+00
              0.873321553238255E+00
              0.120065767214140E+00
              0.187781024146311E+00
              0.967607054910959E+00
              0.181398601251098E+01
             -0.350518774691636E+00
              0.722990752010602E+00
             -0.478032262185597E+00
             -0.799067234596191E+00
             -0.624083977840891E+00
             -0.588748587032050E+00
             -0.253482513209488E+00
             -0.880261274119088E+00
             -0.369963449033954E+00
             -0.237086909848739E+01
              0.577696199602116E+00
              0.520246846191615E+00
             -0.495180215973701E-01
             -0.678454534435604E+00
             -0.347821342029605E+00
             -0.102069787614458E+01
              0.117917251236310E+00
              0.145423722362705E+01
             -0.340272545612990E+00
             -0.344476549365520E+00
              0.339577633997921E+00
             -0.915763776010447E+00
              0.158993105614835E+01
              0.298949978473829E+00
              0.133585726910056E+00
              0.965138621220077E+00
             -0.898244468013862E-01
              0.108200724572080E+01
              0.355561418924877E+00
             -0.583609456618457E-01
              0.255418880952447E+00
             -0.163649793492623E+00
              0.126053327718334E+01
              0.128423208431253E+00
              0.373452354729222E+00
             -0.156657017465097E+00
              0.188102015767656E+00
             -0.172383759081118E+01
             -0.656472519269474E+00
             -0.896886325645005E+00
              0.945791434277690E+00
             -0.646299603540313E+00
             -0.103902971598990E+01
              0.108460057972539E+01
             -0.263544918237745E+00
              0.772755033053618E+00
             -0.163885798596403E+01
              0.355445125155122E+00
              0.813339686947712E-01
              0.108042302715221E+00
             -0.237476321526816E+00
             -0.112798104143906E+00
              0.913890420315865E+00
              0.530414121714466E-01
             -0.947685081690521E+00
             -0.392729714785725E+00
              0.357869562060706E+00
             -0.212658295646512E+01
             -0.161703886180883E+01
              0.238307382022525E-01
              0.282263202050715E+00
             -0.918054964827264E+00
              0.885619257942594E-02
              0.190717020910593E+01
              0.559829684256012E+00
             -0.997017446403468E+00
              0.140113240022714E+00
             -0.188730074585545E+00
              0.233451568483716E+00
             -0.641368617789523E+00
              0.404718024221309E+00
              0.430668930298985E+00
             -0.161755160413730E+00
              0.205676020434595E+01
             -0.922014766647727E-01
             -0.569783456726526E+00
              0.553145443612975E+00
              0.790633997918512E+00
             -0.603909744146108E+00
             -0.143283775820907E-01
              0.179261832418075E+01
             -0.327353272980968E-01
              0.942865138477820E+00
              0.303090945016949E+00
             -0.141583615303165E+00
             -0.287130615112199E+00
              0.890705434945494E+00
             -0.108314155534122E+01
             -0.481693786689297E-01
             -0.361981513565276E+00
             -0.749708255890199E+00
              0.198255098260430E+00
              0.436581964879973E+00
             -0.161977787867009E-01
             -0.377201262560334E-01
             -0.748097753236733E+00
              0.289747282446446E+00
             -0.301388757915455E-01
             -0.409691791570182E+00
             -0.380008949982743E+00
              0.335097518670150E+00
             -0.124251670949853E-01
             -0.707456614219041E+00
             -0.195548446655136E+01
              0.103011021296283E+00
              0.299501677841550E+00
             -0.869003539258363E+00
             -0.455817669406262E+00
              0.150103177369970E+01
              0.216603102149977E+00
              0.792045579341254E+00
              0.185485547808721E+00
              0.714443037393180E+00
              0.379489825770429E-01
             -0.732898425018864E+00
             -0.186154591856069E+00
              0.104381672564640E+00
              0.555809356297716E+00
              0.139033356640969E+01
              0.903149782357322E+00
              0.447053603074421E-01
              0.192764139748294E+00
              0.110932219065030E+01
              0.511025751505841E+00
             -0.129670541679930E+01
             -0.508995400225807E+00
              0.224196948123219E+00
              0.184543216308209E+00
              0.466421803547721E+00
             -0.949239665722176E+00
              0.976713234966577E-01
              0.739693771313970E+00
              0.897664789822281E+00
             -0.777729507810304E+00
              0.290725991307657E-01
             -0.459202669249601E-01
             -0.384337402097723E+00
             -0.479109290981574E+00
             -0.222404902833043E+00
             -0.198515579446918E+00
              0.199457645725487E+00
              0.767023699271795E+00
             -0.592586671949255E+00
              0.149001583349619E+01
              0.615458954536845E+00
              0.469276252328393E+00
              0.677758022932010E+00
              0.472930381488138E+00
              0.622859179459281E+00
              0.101968319190880E+01
             -0.868231150453882E+00
              0.115450947843826E+01
             -0.207530728692364E+01
              0.581211514041708E+00
             -0.193010504778059E+01
              0.147478398407974E+01
              0.143205618878003E+01
             -0.154150192748499E+00
             -0.867855926526469E+00
             -0.785271372840599E+00
             -0.100106856739820E+01
             -0.120031126807435E+01
              0.991559607443485E+00
              0.790717325710414E+00
              0.446207780844040E+00
              0.495062217729719E+00
              0.796495580375551E+00
             -0.748750168188057E+00
             -0.267236135076130E+00
              0.983948209788412E+00
             -0.218357530173803E+00
              0.904298195634018E+00
              0.141391454399687E+01
             -0.550403869571283E-01
             -0.138081572777968E+01
              0.834905695819206E-01
              0.402958919657501E-01
             -0.189140779925216E+00
              0.624035359533428E-01
             -0.119506227682892E+01
             -0.182333987944215E+00
              0.247352130773705E+00
              0.240429755503888E+00
              0.910812187871695E+00
             -0.759119845290567E+00
              0.983076650159530E+00
             -0.706637926861937E+00
              0.484403658006356E+00
              0.799719693797297E+00
 
 BEEF-vdW xc energy contributions
           1 :   -12.9825768540748     
           2 :    10.7601887731172     
           3 :   -7.59686107432692     
           4 :    4.65025527930963     
           5 :   -2.41260247426267     
           6 :   0.952829287394275     
           7 :  -0.144939683305189     
           8 :  -0.219040470278525     
           9 :   0.351632939936090     
          10 :  -0.419023738503849     
          11 :   0.490557503995213     
          12 :  -0.548269806173085     
          13 :   0.548329438516300     
          14 :  -0.475763162471932     
          15 :   0.350476054459229     
          16 :  -0.210455913000603     
          17 :   9.098628910091833E-002
          18 :  -1.399852823858083E-002
          19 :  -1.981240657439365E-002
          20 :   2.712940837790256E-002
          21 :  -2.884373049662514E-002
          22 :   3.502272785659599E-002
          23 :  -4.501739471290023E-002
          24 :   5.279500175014462E-002
          25 :  -5.021443139194481E-002
          26 :   3.263748109525544E-002
          27 :  -6.719354309874248E-003
          28 :  -1.729473277217153E-002
          29 :   3.274273990447440E-002
          30 :  -3.785814093940765E-002
          31 :   -1.68103352808550     
          32 :   -1.04657736669768     

     Writing output data file ./pwscf.save/
 
     init_run     :     74.04s CPU     77.00s WALL (       1 calls)
     electrons    :    551.29s CPU    606.34s WALL (       1 calls)
     forces       :     32.60s CPU     35.33s WALL (       1 calls)

     Called by init_run:
     wfcinit      :      1.67s CPU      1.73s WALL (       1 calls)
     potinit      :     58.25s CPU     60.31s WALL (       1 calls)
     hinit0       :     12.10s CPU     12.23s WALL (       1 calls)

     Called by electrons:
     c_bands      :     92.58s CPU     93.51s WALL (      15 calls)
     sum_band     :     46.99s CPU     57.02s WALL (      15 calls)
     v_of_rho     :    308.07s CPU    339.27s WALL (      16 calls)
     newd         :     22.18s CPU     32.44s WALL (      16 calls)
     PAW_pot      :      1.47s CPU      1.48s WALL (      16 calls)
     mix_rho      :    130.43s CPU    135.60s WALL (      15 calls)
     vdW_kernel   :     34.01s CPU     34.01s WALL (       1 calls)

     Called by c_bands:
     init_us_2    :      1.56s CPU      1.58s WALL (      31 calls)
     regterg      :     90.11s CPU     91.03s WALL (      15 calls)

     Called by *egterg:
     rdiaghg      :      0.02s CPU      0.02s WALL (     129 calls)
     h_psi        :     81.30s CPU     81.32s WALL (     130 calls)
     s_psi        :      1.90s CPU      1.90s WALL (     130 calls)
     g_psi        :      0.30s CPU      0.30s WALL (     114 calls)

     Called by h_psi:
     h_psi:calbec :      1.48s CPU      1.48s WALL (     130 calls)
     vloc_psi     :     77.45s CPU     77.46s WALL (     130 calls)
     add_vuspsi   :      1.92s CPU      1.92s WALL (     130 calls)

     General routines
     calbec       :      1.76s CPU      1.76s WALL (     149 calls)
     fft          :    275.09s CPU    275.11s WALL (    2873 calls)
     ffts         :     54.29s CPU     54.30s WALL (     587 calls)
     fftw         :     72.09s CPU     72.09s WALL (     774 calls)
 
     Parallel routines
 
     PWSCF        :  20m 0.19s CPU  22m 6.03s WALL

 
   This run was terminated on:  16:40:55  20Dec2022            

=------------------------------------------------------------------------------=
   JOB DONE.
=------------------------------------------------------------------------------=
