
     Program PWSCF v.6.7MaX starts on  3Jan2023 at 23: 0:52 

     This program is part of the open-source Quantum ESPRESSO suite
     for quantum simulation of materials; please cite
         "P. Giannozzi et al., J. Phys.:Condens. Matter 21 395502 (2009);
         "P. Giannozzi et al., J. Phys.:Condens. Matter 29 465901 (2017);
          URL http://www.quantum-espresso.org", 
     in publications or presentations arising from this work. More details at
     http://www.quantum-espresso.org/quote

     Parallel version (MPI), running on     1 processors

     MPI processes distributed on     1 nodes
     Reading input from ch3och2oh-gas-ensemble.in
Warning: card &CELL ignored
Warning: card / ignored

     Current dimensions of program PWSCF are:
     Max number of different atomic species (ntypx) = 10
     Max number of k-points (npk) =  40000
     Max angular momentum in pseudopotentials (lmaxx) =  3
     file C.pbe-n-kjpaw_psl.1.0.0.UPF: wavefunction(s)  2S 2P renormalized
     file O.pbe-nl-kjpaw_psl.1.0.0.UPF: wavefunction(s)  2S 2P renormalized
     file H.pbe-kjpaw_psl.1.0.0.UPF: wavefunction(s)  1S renormalized

     **************************************************************************
     Initializing libbeef V0.1.2 with the BEEF-vdW functional.
     Citation: Wellendorff et al., PRB 85, 235149 (2012).
     **************************************************************************


     IMPORTANT: XC functional enforced from input :
     Exchange-correlation= BEEF-VDW
                           (   1   4  43  14   2   0   0)
     Any further DFT definition will be discarded
     Please, verify this is what you really want


     gamma-point specific algorithms are used

     Subspace diagonalization in iterative solution of the eigenvalue problem:
     a serial algorithm will be used

 
     G-vector sticks info
     --------------------
     sticks:   dense  smooth     PW     G-vecs:    dense   smooth      PW
     Sum       36465   36465   9113              5115655  5115655  639397
 


     bravais-lattice index     =            0
     lattice parameter (alat)  =      45.4239  a.u.
     unit-cell volume          =   81475.3881 (a.u.)^3
     number of atoms/cell      =           10
     number of atomic types    =            3
     number of electrons       =        26.00
     number of Kohn-Sham states=           17
     kinetic-energy cutoff     =      60.0000  Ry
     charge density cutoff     =     240.0000  Ry
     scf convergence threshold =      1.0E-06
     mixing beta               =       0.7000
     number of iterations used =            8  local-TF  mixing
     Exchange-correlation= BEEF-VDW
                           (   1   4  43  14   2   0   0)

     celldm(1)=  45.423904  celldm(2)=   0.000000  celldm(3)=   0.000000
     celldm(4)=   0.000000  celldm(5)=   0.000000  celldm(6)=   0.000000

     crystal axes: (cart. coord. in units of alat)
               a(1) = (   1.000000   0.000000   0.000000 )  
               a(2) = (   0.000000   0.925775   0.000000 )  
               a(3) = (   0.000000   0.000000   0.939004 )  

     reciprocal axes: (cart. coord. in units 2 pi/alat)
               b(1) = (  1.000000  0.000000  0.000000 )  
               b(2) = (  0.000000  1.080176  0.000000 )  
               b(3) = (  0.000000  0.000000  1.064958 )  


     PseudoPot. # 1 for C  read from file:
     /users/bkreitz1/quantum-espresso/potentials/C.pbe-n-kjpaw_psl.1.0.0.UPF
     MD5 check sum: a169b0ebad56f5ec0d79c4633f80bf22
     Pseudo is Projector augmented-wave + core cor, Zval =  4.0
     Generated using 'atomic' code by A. Dal Corso  v.6.7MaX
     Shape of augmentation charge: PSQ
     Using radial grid of 1073 points,  4 beta functions with: 
                l(1) =   0
                l(2) =   0
                l(3) =   1
                l(4) =   1
     Q(r) pseudized with 0 coefficients 


     PseudoPot. # 2 for O  read from file:
     /users/bkreitz1/quantum-espresso/potentials/O.pbe-nl-kjpaw_psl.1.0.0.UPF
     MD5 check sum: eef08af8b58d9ec80f8fdb78829eb7cf
     Pseudo is Projector augmented-wave + core cor, Zval =  6.0
     Generated using 'atomic' code by A. Dal Corso  v.6.7MaX
     Shape of augmentation charge: PSQ
     Using radial grid of 1095 points,  4 beta functions with: 
                l(1) =   0
                l(2) =   0
                l(3) =   1
                l(4) =   1
     Q(r) pseudized with 0 coefficients 


     PseudoPot. # 3 for H  read from file:
     /users/bkreitz1/quantum-espresso/potentials/H.pbe-kjpaw_psl.1.0.0.UPF
     MD5 check sum: ae98473e6dc62675f0d0baffdab24f65
     Pseudo is Projector augmented-wave, Zval =  1.0
     Generated using 'atomic' code by A. Dal Corso  v.6.7MaX
     Shape of augmentation charge: PSQ
     Using radial grid of  929 points,  2 beta functions with: 
                l(1) =   0
                l(2) =   0
     Q(r) pseudized with 0 coefficients 


     atomic species   valence    mass     pseudopotential
        C              4.00    12.01100     C ( 1.00)
        O              6.00    15.99900     O ( 1.00)
        H              1.00     1.00800     H ( 1.00)

     No symmetry found



   Cartesian axes

     site n.     atom                  positions (alat units)
         1           C   tau(   1) = (   0.5484100   0.4693732   0.4629377  )
         2           C   tau(   2) = (   0.4520339   0.4516355   0.4798106  )
         3           O   tau(   3) = (   0.4284869   0.4988731   0.4529468  )
         4           H   tau(   4) = (   0.5564974   0.4756954   0.5073829  )
         5           H   tau(   5) = (   0.5839946   0.4488204   0.4439012  )
         6           H   tau(   6) = (   0.5415212   0.5096602   0.4430233  )
         7           H   tau(   7) = (   0.4590728   0.4651011   0.5227482  )
         8           H   tau(   8) = (   0.4237767   0.4160565   0.4784289  )
         9           H   tau(   9) = (   0.4162759   0.4875239   0.4163418  )
        10           O   tau(  10) = (   0.5018569   0.4327874   0.4555185  )

     number of k points=     1  Gaussian smearing, width (Ry)=  0.0050
                       cart. coord. in units 2pi/alat
        k(    1) = (   0.0000000   0.0000000   0.0000000), wk =   2.0000000

     Dense  grid:  2557828 G-vectors     FFT dimensions: ( 225, 216, 216)

     Estimated max dynamical RAM per process >       4.45 GB

     Initial potential from superposition of free atoms

     starting charge   25.99986, renormalised to   26.00000

     negative rho (up, down):  2.231E-02 0.000E+00


     %%%%%%%%%%%%%%%%%%%%%%%%%%%%%%%%%%%%%%%%%%%%%%%%%%%%%%%%%%%%%%%%%%%%%%%%
     %                                                                      %
     % You are using vdW-DF, which was implemented by the Thonhauser group. %
     % Please cite the following two papers that made this development      %
     % possible and the two reviews that describe the various versions:     %
     %                                                                      %
     %   T. Thonhauser et al., PRL 115, 136402 (2015).                      %
     %   T. Thonhauser et al., PRB 76, 125112 (2007).                       %
     %   K. Berland et al., Rep. Prog. Phys. 78, 066501 (2015).             %
     %   D.C. Langreth et al., J. Phys.: Condens. Matter 21, 084203 (2009). %
     %                                                                      %
     %                                                                      %
     % If you are calculating the stress with vdW-DF, please also cite:     %
     %                                                                      %
     %   R. Sabatini et al., J. Phys.: Condens. Matter 24, 424209 (2012).   %
     %                                                                      %
     %%%%%%%%%%%%%%%%%%%%%%%%%%%%%%%%%%%%%%%%%%%%%%%%%%%%%%%%%%%%%%%%%%%%%%%%


     Starting wfcs are   22 randomized atomic wfcs
     Checking if some PAW data can be deallocated... 

     total cpu time spent up to now is       83.8 secs

     Self-consistent Calculation

     iteration #  1     ecut=    60.00 Ry     beta= 0.70
     Davidson diagonalization with overlap
     ethr =  1.00E-02,  avg # of iterations =  6.0

     negative rho (up, down):  1.753E-02 0.000E+00

     total cpu time spent up to now is      133.8 secs

     total energy              =    -130.29241971 Ry
     estimated scf accuracy    <       1.07388944 Ry

     iteration #  2     ecut=    60.00 Ry     beta= 0.70
     Davidson diagonalization with overlap
     ethr =  4.13E-03,  avg # of iterations =  2.0

     negative rho (up, down):  1.259E-02 0.000E+00

     total cpu time spent up to now is      179.2 secs

     total energy              =    -130.27433733 Ry
     estimated scf accuracy    <       0.23280370 Ry

     iteration #  3     ecut=    60.00 Ry     beta= 0.70
     Davidson diagonalization with overlap
     ethr =  8.95E-04,  avg # of iterations =  5.0

     negative rho (up, down):  8.299E-03 0.000E+00

     total cpu time spent up to now is      227.6 secs

     total energy              =    -130.28525211 Ry
     estimated scf accuracy    <       0.05051534 Ry

     iteration #  4     ecut=    60.00 Ry     beta= 0.70
     Davidson diagonalization with overlap
     ethr =  1.94E-04,  avg # of iterations =  4.0

     negative rho (up, down):  1.494E-02 0.000E+00

     total cpu time spent up to now is      275.0 secs

     total energy              =    -130.27803000 Ry
     estimated scf accuracy    <       0.02331454 Ry

     iteration #  5     ecut=    60.00 Ry     beta= 0.70
     Davidson diagonalization with overlap
     ethr =  8.97E-05,  avg # of iterations =  9.0

     negative rho (up, down):  1.177E-01 0.000E+00

     total cpu time spent up to now is      326.4 secs

     total energy              =    -130.27871098 Ry
     estimated scf accuracy    <       0.01042150 Ry

     iteration #  6     ecut=    60.00 Ry     beta= 0.70
     Davidson diagonalization with overlap
     ethr =  4.01E-05,  avg # of iterations = 11.0

     negative rho (up, down):  1.389E-01 0.000E+00

     total cpu time spent up to now is      378.2 secs

     total energy              =    -130.27948075 Ry
     estimated scf accuracy    <       0.00372169 Ry

     iteration #  7     ecut=    60.00 Ry     beta= 0.70
     Davidson diagonalization with overlap
     ethr =  1.43E-05,  avg # of iterations = 10.0

     negative rho (up, down):  1.392E-01 0.000E+00

     total cpu time spent up to now is      428.9 secs

     total energy              =    -130.27885412 Ry
     estimated scf accuracy    <       0.00199722 Ry

     iteration #  8     ecut=    60.00 Ry     beta= 0.70
     Davidson diagonalization with overlap
     ethr =  7.68E-06,  avg # of iterations =  6.0

     negative rho (up, down):  1.314E-01 0.000E+00

     total cpu time spent up to now is      478.8 secs

     total energy              =    -130.27835282 Ry
     estimated scf accuracy    <       0.00090437 Ry

     iteration #  9     ecut=    60.00 Ry     beta= 0.70
     Davidson diagonalization with overlap
     ethr =  3.48E-06,  avg # of iterations =  9.0

     negative rho (up, down):  8.736E-02 0.000E+00

     total cpu time spent up to now is      529.6 secs

     total energy              =    -130.27738991 Ry
     estimated scf accuracy    <       0.00046704 Ry

     iteration # 10     ecut=    60.00 Ry     beta= 0.70
     Davidson diagonalization with overlap
     c_bands:  1 eigenvalues not converged
     ethr =  1.80E-06,  avg # of iterations = 20.0

     negative rho (up, down):  6.947E-02 0.000E+00

     total cpu time spent up to now is      585.1 secs

     total energy              =    -130.27709307 Ry
     estimated scf accuracy    <       0.00020443 Ry

     iteration # 11     ecut=    60.00 Ry     beta= 0.70
     Davidson diagonalization with overlap
     ethr =  7.86E-07,  avg # of iterations = 19.0

     negative rho (up, down):  5.228E-02 0.000E+00

     total cpu time spent up to now is      639.3 secs

     total energy              =    -130.27699376 Ry
     estimated scf accuracy    <       0.00011076 Ry

     iteration # 12     ecut=    60.00 Ry     beta= 0.70
     Davidson diagonalization with overlap
     ethr =  4.26E-07,  avg # of iterations =  8.0

     negative rho (up, down):  4.264E-02 0.000E+00

     total cpu time spent up to now is      688.6 secs

     total energy              =    -130.27704155 Ry
     estimated scf accuracy    <       0.00004965 Ry

     iteration # 13     ecut=    60.00 Ry     beta= 0.70
     Davidson diagonalization with overlap
     ethr =  1.91E-07,  avg # of iterations =  6.0

     negative rho (up, down):  3.699E-02 0.000E+00

     total cpu time spent up to now is      735.6 secs

     total energy              =    -130.27701987 Ry
     estimated scf accuracy    <       0.00002134 Ry

     iteration # 14     ecut=    60.00 Ry     beta= 0.70
     Davidson diagonalization with overlap
     ethr =  8.21E-08,  avg # of iterations =  6.0

     negative rho (up, down):  3.275E-02 0.000E+00

     total cpu time spent up to now is      782.8 secs

     total energy              =    -130.27703165 Ry
     estimated scf accuracy    <       0.00000796 Ry

     iteration # 15     ecut=    60.00 Ry     beta= 0.70
     Davidson diagonalization with overlap
     ethr =  3.06E-08,  avg # of iterations =  6.0

     negative rho (up, down):  3.046E-02 0.000E+00

     total cpu time spent up to now is      829.1 secs

     total energy              =    -130.27704572 Ry
     estimated scf accuracy    <       0.00000309 Ry

     iteration # 16     ecut=    60.00 Ry     beta= 0.70
     Davidson diagonalization with overlap
     ethr =  1.19E-08,  avg # of iterations =  2.0

     negative rho (up, down):  2.999E-02 0.000E+00

     total cpu time spent up to now is      873.9 secs

     total energy              =    -130.27704476 Ry
     estimated scf accuracy    <       0.00000105 Ry

     iteration # 17     ecut=    60.00 Ry     beta= 0.70
     Davidson diagonalization with overlap
     ethr =  4.04E-09,  avg # of iterations =  5.0

     negative rho (up, down):  2.969E-02 0.000E+00

     total cpu time spent up to now is      909.7 secs

     End of self-consistent calculation

          k = 0.0000 0.0000 0.0000 (319699 PWs)   bands (ev):

   -26.9682 -25.4495 -18.1980 -16.1648 -13.3976 -12.2845 -12.0054 -10.6756
   -10.2541  -9.3949  -7.7903  -7.3264  -6.6779  -1.0852  -0.6690  -0.4221
    -0.2999

     the Fermi energy is    -3.5314 ev

!    total energy              =    -130.27704304 Ry

     total all-electron energy =      -463.499001 Ry
     estimated scf accuracy    <       0.00000046 Ry
     smearing contrib. (-TS)   =      -0.00000000 Ry
     internal energy E=F+TS    =    -130.27704304 Ry

     The total energy is F=E-TS. E is the sum of the following terms:
     one-electron contribution =    -371.73171807 Ry
     hartree contribution      =     190.59057975 Ry
     xc contribution           =     -29.73100295 Ry
     ewald contribution        =     113.95103143 Ry
     one-center paw contrib.   =     -33.35593320 Ry

     convergence has been achieved in  17 iterations

     negative rho (up, down):  2.969E-02 0.000E+00

     Forces acting on atoms (cartesian axes, Ry/au):

     atom    1 type  1   force =     0.00070887   -0.00028851    0.00243261
     atom    2 type  1   force =    -0.00204509    0.00298716    0.00451387
     atom    3 type  2   force =     0.00020896   -0.00019879   -0.00080859
     atom    4 type  3   force =     0.00111545    0.00113076   -0.00024917
     atom    5 type  3   force =    -0.00077475    0.00020288    0.00013694
     atom    6 type  3   force =    -0.00079444   -0.00052251   -0.00022326
     atom    7 type  3   force =    -0.00113710    0.00016448    0.00109153
     atom    8 type  3   force =     0.00052181   -0.00037934   -0.00043726
     atom    9 type  3   force =     0.00027848    0.00023234   -0.00039128
     atom   10 type  2   force =     0.00191782   -0.00332847   -0.00606541

     Total force =     0.009993     Total SCF correction =     0.000353

     negative rho (up, down):  2.969E-02 0.000E+00

     negative rho (up, down):  2.969E-02 0.000E+00

     negative rho (up, down):  2.969E-02 0.000E+00

     negative rho (up, down):  2.969E-02 0.000E+00

     negative rho (up, down):  2.969E-02 0.000E+00

     negative rho (up, down):  2.969E-02 0.000E+00

     negative rho (up, down):  2.969E-02 0.000E+00

     negative rho (up, down):  2.969E-02 0.000E+00

     negative rho (up, down):  2.969E-02 0.000E+00

     negative rho (up, down):  2.969E-02 0.000E+00

     negative rho (up, down):  2.969E-02 0.000E+00

     negative rho (up, down):  2.969E-02 0.000E+00

     negative rho (up, down):  2.969E-02 0.000E+00

     negative rho (up, down):  2.969E-02 0.000E+00

     negative rho (up, down):  2.969E-02 0.000E+00

     negative rho (up, down):  2.969E-02 0.000E+00

     negative rho (up, down):  2.969E-02 0.000E+00

     negative rho (up, down):  2.969E-02 0.000E+00

     negative rho (up, down):  2.969E-02 0.000E+00

     negative rho (up, down):  2.969E-02 0.000E+00

     negative rho (up, down):  2.969E-02 0.000E+00

     negative rho (up, down):  2.969E-02 0.000E+00

     negative rho (up, down):  2.969E-02 0.000E+00

     negative rho (up, down):  2.969E-02 0.000E+00

     negative rho (up, down):  2.969E-02 0.000E+00

     negative rho (up, down):  2.969E-02 0.000E+00

     negative rho (up, down):  2.969E-02 0.000E+00

     negative rho (up, down):  2.969E-02 0.000E+00

     negative rho (up, down):  2.969E-02 0.000E+00

     negative rho (up, down):  2.969E-02 0.000E+00

     negative rho (up, down):  2.969E-02 0.000E+00

     negative rho (up, down):  2.969E-02 0.000E+00

     negative rho (up, down):  2.969E-02 0.000E+00

     negative rho (up, down):  2.969E-02 0.000E+00
 BEEFens 2000 ensemble energies
             -0.221087095061986E+01
             -0.821084171795619E-01
             -0.459626778509103E+00
              0.151650605811819E+01
             -0.712669290863229E+00
             -0.549183886359762E+00
             -0.163174704794789E+01
             -0.334827054194339E+01
             -0.122229579420945E+01
             -0.130713841711304E+01
             -0.123083809313034E+01
              0.185535827880808E+00
              0.117992227512716E+00
             -0.154748119330386E+00
              0.143546255717267E+00
              0.161943550456641E+01
             -0.702861729135067E+00
             -0.376935556855954E+00
              0.791422381619075E+00
             -0.381311107163730E+01
              0.194309630420289E+01
             -0.656308783959513E+00
             -0.220125907698583E+00
             -0.313359794433008E+00
              0.758825527975695E-01
             -0.214988779669465E+00
              0.303972889492560E+01
             -0.760553794678839E+00
             -0.303587730842644E+00
             -0.193216520772869E+01
              0.239382423431828E+01
             -0.179765231410729E+00
             -0.143937539339136E+01
              0.647819600464997E+00
             -0.974244530811372E-01
              0.959630574179545E+00
              0.515674120408462E-01
              0.341042156916949E-02
              0.124300847985922E+01
             -0.346984681418277E+01
              0.189043484818017E+01
              0.410325284219454E+00
             -0.399461365799537E+00
             -0.105072978142660E+01
              0.409006709945441E+00
             -0.594166773425894E+00
              0.173815826644800E+01
              0.121517839480388E+01
             -0.672816411504190E+00
             -0.109741158362436E+01
             -0.103244794293444E+01
             -0.127146832530906E+01
              0.718231893662280E+00
             -0.182441511440770E+01
              0.556701929071959E+00
              0.209682191594111E+01
              0.256807483541115E+01
              0.109306451620562E+01
              0.603618224261660E+00
              0.110269432882451E+01
              0.312206538210743E+01
              0.602826584327865E+00
             -0.190262197701195E+01
             -0.336689098996519E+00
             -0.100238126557085E+01
              0.215892394549452E+01
             -0.252074988945745E+01
             -0.201050498515574E+01
             -0.112159329232101E+01
             -0.614003388800192E+00
             -0.138493696689220E+01
              0.946249411536237E+00
              0.451714997740574E+00
              0.548861922888541E+00
             -0.130024960129164E+01
             -0.122774912711477E+01
             -0.201483194261694E+01
              0.111130629925328E+01
             -0.116705564763667E+01
              0.105649998234521E+01
             -0.254984259628433E+00
             -0.983762658838440E+00
             -0.177807223607441E+01
             -0.522070972057344E+00
             -0.576639152441981E+00
             -0.541753584068487E+00
              0.132976138715516E+01
              0.263697100998218E+01
             -0.156774824688857E+01
             -0.276536902438230E+01
             -0.631209975011250E+00
              0.376789647262760E+01
             -0.189766692218975E+01
              0.105402217007791E+01
             -0.407823561383267E+00
             -0.206077891227821E+01
              0.954486765527612E+00
              0.107570378755632E+01
             -0.493039709320687E+00
              0.972809961299657E+00
             -0.857352634557621E+00
             -0.208291317667472E+01
              0.343277363209138E+01
              0.157808807901222E+01
              0.753635030757124E+00
              0.442882423144136E+00
              0.788279846754660E+00
              0.280406412494441E+01
             -0.911628566017032E+00
              0.831564398746263E-01
             -0.477370803167027E+01
              0.643584774170010E+00
             -0.228422810905713E+01
              0.423074109855708E+00
              0.746224339697208E+00
             -0.126531501907938E+01
             -0.172969553591727E+01
              0.921190633893652E-01
             -0.103868895452241E+01
              0.152148514506773E+01
             -0.155247904855487E+01
             -0.273317618708763E+00
             -0.132001811212969E+01
             -0.127865720628337E+00
              0.139507895409592E+00
              0.752279179097053E+00
             -0.226660451855558E-01
             -0.217968358325319E+00
              0.227025722265309E+01
              0.315703579981598E+01
              0.169207558487825E+01
              0.228312080595831E+01
             -0.462089785054412E+00
              0.295844111899861E+00
              0.179025960911455E+01
              0.142174173140958E+00
             -0.261365926488604E+01
             -0.148307183092571E+01
             -0.165805884298933E+01
             -0.100828265635632E+01
              0.859356399192299E+00
             -0.418412081083468E+01
             -0.412478004757640E+00
              0.159417599162024E+01
             -0.138631562379508E+01
             -0.994253337682100E+00
              0.196775600730111E+01
              0.168788605263058E+01
             -0.968052084831606E+00
              0.108880416570595E+01
             -0.844024167143995E+00
              0.130310007002252E+01
              0.263891562333367E+00
              0.379843229362213E+00
             -0.282284334623593E+01
             -0.165213093905522E+01
             -0.297291441605946E+00
             -0.871030891047161E-01
             -0.147408759585909E+01
              0.379508103403460E+01
             -0.418930474150716E+00
             -0.912310870934871E+00
              0.137263092358949E+01
             -0.155847952793648E+01
             -0.128126507924027E+01
              0.109627482094830E+01
              0.406826235130559E+00
              0.352772664935237E+00
              0.530485831662190E+00
             -0.365056260525344E+00
              0.348928382437729E+00
              0.202356094130058E+01
             -0.949287504597520E+00
              0.755900930083625E+00
              0.304515069402339E+01
              0.107082137466530E+01
             -0.161523607489357E+00
             -0.690121902592094E+00
              0.534165459570119E+01
             -0.845006030877903E+00
              0.132412594210527E+01
              0.104731950640561E+01
              0.977664586021386E+00
              0.320835027781435E+01
              0.158797658268201E+01
             -0.203539728082372E+00
              0.849286932066407E+00
              0.176972310475040E+01
              0.134228713039198E+01
             -0.211347311328369E+01
              0.322995335560584E+01
             -0.294964354479538E+01
             -0.389476083462104E+00
              0.194162661511684E+01
              0.542341299828333E+00
              0.184100371147228E+00
              0.972605107718145E+00
              0.529659152695018E+00
              0.113460315407540E+01
             -0.215668487618909E+01
              0.124755253402242E+00
             -0.798138365501512E+00
             -0.224658820705733E+00
             -0.853622392096902E-01
             -0.430808788066253E+00
             -0.217971316896827E+00
              0.285528829478905E+01
             -0.171817787837179E+00
             -0.994528060469212E+00
             -0.388458368839180E-01
              0.484538567874910E+00
             -0.220395127370932E+01
             -0.185821754737875E+01
             -0.116682665731437E+01
             -0.215437833706259E+01
             -0.653109844658141E+00
             -0.139183174368566E+01
              0.649337969532974E+00
              0.615918553871779E-01
             -0.451425780050867E+00
             -0.286385383951353E+00
              0.173010270966068E+00
             -0.499984831002687E+00
              0.221176098941267E+01
             -0.300655042216186E+01
             -0.458170480190353E+00
             -0.481698797701633E+00
              0.526271137078313E+00
              0.703709256727404E+00
             -0.174687739020936E+01
             -0.437996651179063E+00
              0.153122693662189E+01
             -0.676808857754002E+00
              0.446089240214766E+00
              0.116704279448855E+01
             -0.215064108116092E-01
              0.396601676400916E+01
             -0.411437057211335E+00
             -0.119351094912314E+01
              0.303588619839203E-01
             -0.950233141477925E+00
              0.188059395595135E+01
             -0.162851929826678E+01
              0.456966020459298E+00
              0.175942504917001E+01
             -0.460349614894328E+00
              0.404041453764907E+01
              0.439832051290433E+01
             -0.241534347312486E+01
              0.196412997955566E+01
              0.789758857866989E+00
             -0.192663225739761E+01
              0.623964309622532E+00
              0.145003813030123E+01
              0.159834907208726E+01
              0.162519547856810E+00
              0.576973997162380E+00
              0.255205610368949E+01
             -0.786573285620415E+00
              0.305332801821261E+00
              0.235246965918251E+01
             -0.125136884773216E+01
             -0.802863078819724E+00
              0.201794374674584E+01
              0.104701105170316E+01
              0.266354916580551E+01
              0.114146228270644E+01
              0.454309780411924E+00
              0.870425809540988E+00
              0.145063750821191E+01
             -0.176460064637775E+01
              0.248241207471718E+00
              0.895241245795354E+00
              0.371771135737433E+00
              0.818890440465151E+00
             -0.211965104356786E+01
              0.110812093467257E+01
             -0.148765483021895E+01
             -0.105833808609300E+01
              0.641720705878639E+00
             -0.307691299849166E+00
              0.204110411637690E+01
             -0.525162805380319E+00
              0.101090611254538E+01
              0.102674564468607E+01
              0.265809452733830E+01
              0.179206190343567E+01
              0.175705993788743E+01
             -0.139122790140014E+00
             -0.370800504638204E+00
             -0.101611567948355E+01
              0.279939804608413E+01
              0.283920578622767E+01
              0.135389903413135E+01
             -0.967814531266421E+00
              0.170416605652907E+01
             -0.250217293957000E-01
              0.613515758359731E+00
              0.237222694557655E+01
             -0.917702268629395E-01
             -0.348686852192868E+00
             -0.730436531075597E+00
             -0.206967852681294E+01
              0.331369022802779E+01
              0.172969479003930E+01
             -0.220941056619254E+01
             -0.742928249812116E+00
              0.884016356990771E+00
             -0.379918218582917E+00
              0.225648057734984E+01
              0.537850420298009E+00
              0.278887682827358E+01
              0.103065044050395E+01
             -0.838161756508548E+00
              0.655222793239084E+00
             -0.246002392713129E+00
             -0.893806130171333E+00
              0.595146750298087E+00
              0.570875187056082E+00
              0.307241573116329E+01
              0.262696975405508E+01
              0.194506916863039E+01
              0.231788758290495E+01
              0.220230748146142E+00
             -0.877579140139318E+00
              0.452179042701584E+00
             -0.115920830099713E+01
             -0.192443072028957E+01
             -0.197641447490710E+01
             -0.111089250685924E+01
             -0.371557372397423E+01
             -0.125844537559101E+01
             -0.297932514170577E+01
              0.697749062880367E+00
             -0.155558234714441E+01
              0.172603650908391E+01
             -0.336862806154755E+01
             -0.101362367909732E+01
              0.137893992583698E+01
              0.756339800768027E+00
             -0.310150449021975E+01
              0.185309098704831E+01
             -0.976965311044504E+00
              0.190512937372363E+01
             -0.981580706302324E+00
             -0.271601725434196E+01
              0.621818178278034E+00
             -0.228424279207211E+01
             -0.147943020676404E+00
             -0.246145992352732E-01
              0.145556007898187E+01
              0.432057254529478E+01
             -0.149254936940606E+01
             -0.130939604496717E+01
             -0.208033528293683E+00
             -0.290239720941370E+00
             -0.276317300809630E+01
             -0.195665940272279E+01
              0.172879892804243E+01
             -0.649332902765636E+00
              0.738044679146991E+00
             -0.170116106956558E+01
             -0.543810122389329E+00
             -0.143747549761180E+01
              0.166324402226409E+01
              0.463656492649172E+00
             -0.826990275863162E+00
             -0.591711521453171E+00
              0.440722495879428E+00
             -0.284296634756872E+00
              0.140090880969318E+01
             -0.915358820929931E+00
              0.349980499655658E+00
              0.113721521569096E+01
              0.456795416762763E+00
             -0.786355620466916E+00
              0.533724004584173E+01
              0.201197232383415E+01
              0.339209967096624E+00
              0.224243471863836E+00
             -0.207940052559925E+01
              0.113565284427057E+01
             -0.268152115839701E+01
             -0.116734740907216E+01
             -0.203865784450472E+01
             -0.608370102769362E+00
              0.201349202962563E+01
             -0.199223310388718E+01
              0.885929436235990E+00
             -0.119228113153994E+00
              0.628278406295610E-01
             -0.108944586280814E+01
             -0.142762404964075E+01
             -0.165920494318325E+00
             -0.119310059369456E+01
             -0.803594918372301E+00
             -0.135934507131739E+01
             -0.201546015267954E+00
             -0.110498212174761E+01
             -0.169215064163861E+01
              0.767480746249791E+00
             -0.454988001593282E+00
              0.805282173047379E+00
              0.307464315155649E+00
             -0.259347070186102E+01
             -0.177561596581717E+01
             -0.168576537774115E+01
              0.114396570682721E+01
             -0.209380247924228E+00
             -0.215651129751069E+01
              0.193898351283298E+01
             -0.146009686942657E+01
              0.199456427027185E+01
             -0.106047635552960E+01
             -0.169710653584352E+01
              0.878360538781632E+00
             -0.251022542898543E+01
             -0.110603309016177E+01
              0.203871672199521E+01
              0.679029827252183E+00
             -0.145873954974295E+01
              0.189805008188985E+01
             -0.567531943153892E+00
             -0.127033093788025E+01
             -0.104494471909560E+01
             -0.178650921217610E+01
              0.863806645233947E+00
             -0.299286893410617E+01
             -0.265785647575022E+01
             -0.274101387824940E+00
             -0.998181786597703E+00
             -0.206637739503312E+01
              0.262310328269119E+01
              0.473041493915474E+01
             -0.785917616929704E+00
             -0.113914384998896E+00
             -0.209568563333774E+01
              0.227219903704353E+01
              0.755860349758740E+00
             -0.697341174174912E+00
             -0.125849884715006E+01
              0.514384218232272E+00
             -0.208496400925651E+01
             -0.395074859325126E+00
             -0.301099542173949E+01
              0.117731185861539E+01
              0.413120092192896E+00
             -0.191597923072997E+00
             -0.359868279437752E+00
             -0.140943886851808E+01
             -0.422159614808642E+00
              0.467095214230917E+01
             -0.548345539413475E+00
             -0.164583897518927E+01
             -0.237436942553085E+01
              0.474089513855585E+00
             -0.129572261971242E+01
              0.327261901751183E+00
              0.114353160758559E+01
              0.155094769703718E+00
              0.122039766346334E+01
              0.602020270057383E+00
              0.202041446913048E+01
              0.894965635931125E+00
             -0.123666498672374E+01
              0.182686209293714E+01
              0.119145889190165E+01
              0.442572411781240E+00
              0.128057168703561E+01
             -0.104110214787493E+01
              0.246466665820062E+01
              0.870185219409747E+00
             -0.119010826639799E+01
             -0.186198030366443E+00
             -0.563080520589139E+00
              0.559910711212662E+00
             -0.923769223856505E+00
             -0.368807566923665E+00
             -0.449269365262779E+00
              0.280786252734629E+01
              0.200439985026482E+01
             -0.227912746953962E+01
             -0.251283339460787E+00
             -0.175899573219690E+01
             -0.477212773814072E+00
             -0.731220472865767E+00
              0.375641056443017E+00
             -0.136625115710334E+00
             -0.960632001519738E+00
              0.564675367558792E+00
             -0.313909294125651E+00
             -0.272352512113016E+00
              0.301774358446644E+01
              0.539935664934797E+00
             -0.284471771175440E+01
             -0.133034401844860E+01
              0.327618856968278E+01
              0.817239642937579E+00
             -0.284575928169524E+00
              0.379437784202961E+01
             -0.619790038185755E+00
             -0.268982796161062E+00
             -0.378699635105420E+00
              0.546063106637757E+00
              0.110882557721766E+01
              0.887725492848341E-01
              0.982565309767722E+00
             -0.403731864252512E+00
             -0.132450124651464E+01
             -0.133776101419929E+01
             -0.168335095874732E+01
              0.140553750521931E+01
              0.517129317854423E+00
              0.130213004264665E+01
              0.540712301185328E+00
              0.310485564212303E+01
              0.693707233313672E+00
             -0.263861211155384E+01
             -0.113433583319532E+01
              0.143874829661376E+00
             -0.966787369130993E+00
              0.218430199783289E+01
             -0.570027922694695E+00
              0.611753098796506E+00
              0.189464240289278E+01
             -0.277969064491143E+01
              0.511344858515479E+01
              0.667203284837390E+00
              0.827311776029941E+00
              0.129948685824759E+01
              0.153604989445379E+00
             -0.897962759040780E-01
              0.113826814690278E+01
             -0.119033598188428E+01
              0.295926886123844E+01
              0.258291760734045E+01
             -0.133546064211271E+01
              0.598267386332864E+00
              0.250518705869302E+01
             -0.760090601502358E+00
              0.674752205210709E+00
              0.118524046150060E+01
              0.146317966759289E+01
             -0.257879310623316E+01
             -0.230442579258664E+00
             -0.975317479822387E+00
             -0.215679259284192E+00
             -0.219787590668929E+00
              0.188161815775256E+00
             -0.485789582874641E+00
             -0.102548488666776E+01
              0.529073036564085E+00
              0.237943355539638E+00
              0.184382294583255E+01
             -0.157401784080400E+01
              0.153119647744736E+01
              0.171511499092074E+01
             -0.375388209672543E+00
              0.264623483241973E+01
             -0.232595710828393E+01
             -0.357191958506679E+01
             -0.248891096573690E+00
             -0.247491901206647E+00
              0.113034608009244E-01
              0.266509946107402E+01
             -0.766632898197628E-01
              0.146284871947420E+01
              0.201236380993342E+01
              0.134396913974728E+01
             -0.188218545553379E+00
              0.209369698217653E+01
             -0.584246594697792E+00
             -0.133081149051978E+01
             -0.130135576368447E+01
              0.334864755131292E+00
              0.126787364920432E+01
             -0.104076121774087E+00
              0.120115078268651E+01
              0.120477653098439E-01
              0.196870911027673E+01
              0.615840049402452E+00
              0.263578558781824E+00
              0.219451296673512E-01
              0.104218600397740E+01
              0.142196244752116E+01
              0.547808371998375E+00
             -0.118595782570104E+00
             -0.186317862912318E+01
              0.104146194955400E+01
              0.716504155326975E+00
              0.118148112425396E+01
              0.106852357048011E+01
              0.125032738449694E+01
             -0.323622588728305E+00
              0.113087477808429E+01
             -0.981446477242557E+00
             -0.640250843370325E-01
             -0.183574579741800E+01
             -0.121284871133826E+01
              0.149218659394708E+01
             -0.305787091184816E+01
              0.873419839509737E+00
              0.476401353967610E+00
              0.295052840167576E+01
             -0.539842893332578E+00
              0.110832969686496E+01
             -0.400089297247636E+00
             -0.170403411443245E+01
             -0.233155450203051E+01
             -0.482545074348879E+00
             -0.313796897737188E+01
              0.328247059756887E+00
             -0.727627612287831E+00
              0.111969353940372E+01
              0.776568243269104E+00
             -0.967887393147794E+00
             -0.100568991874620E+01
              0.148717072628257E+01
             -0.194337937948498E+01
             -0.446071476429511E+00
             -0.576307342126670E+00
              0.891210299986827E+00
              0.105331696103841E+00
              0.139653001140588E+00
             -0.554016205892447E+00
              0.185875891510107E+01
             -0.196555220556198E+01
              0.271689533605233E+00
              0.205894311263156E+01
             -0.124172270347788E+01
              0.106091364373540E+00
              0.239067324957283E-01
             -0.230149134822795E+01
             -0.139056363440265E+01
             -0.100992875032257E+00
              0.104201880124910E+01
              0.116402896663701E+01
              0.159396165198823E+00
             -0.383564875319308E+00
              0.630979883912122E+00
             -0.143419507860734E+01
             -0.135009911484651E+00
             -0.180651980409286E+01
             -0.892652593943733E+00
              0.172783258523242E+01
             -0.104759684912007E+01
              0.238658388282147E+01
             -0.769826703769109E+00
              0.119446995717732E+01
              0.878927387363769E+00
             -0.207782422022633E+01
             -0.920968708857504E+00
              0.308154470864522E+00
             -0.139461290535070E+01
             -0.142583655740490E+01
             -0.304015016272837E+01
             -0.193896145295400E+01
             -0.173368280393582E+01
             -0.156903315933030E+01
              0.337287853038468E-01
              0.808717520495581E+00
              0.330476573072477E+00
              0.912665975766722E+00
             -0.202057073527428E+01
              0.440091432545032E+00
              0.900190585589075E+00
             -0.238236516979037E+01
             -0.200009506883997E+01
             -0.131830636543988E+01
             -0.108063166872273E+01
              0.545863767672888E+00
             -0.101836437058846E+00
             -0.150714702775120E+01
              0.102421012060336E+01
             -0.765097214773498E+00
              0.180570610158718E+01
             -0.303245434715854E+01
              0.216411135114692E+01
             -0.337014784633399E+00
             -0.149417522335625E+01
             -0.981937947498580E+00
             -0.199681582181803E-01
              0.168577178745404E+01
             -0.242710128837575E+01
             -0.452067578602784E+00
             -0.572805045902139E+00
              0.145307166069423E+01
              0.275900923342014E+01
             -0.343058897468891E+01
              0.318852941129579E+01
              0.139554900795425E+01
             -0.264153969840911E+01
             -0.111314858673943E+01
              0.270565888463941E+01
              0.197321868618895E+01
             -0.697181952272249E+00
             -0.254579423804126E+00
              0.602873181963963E+00
              0.265922220258398E+01
             -0.204081433693519E+01
              0.473213019393993E+00
             -0.256523785964336E+00
              0.956173570489174E+00
             -0.243809045506412E+01
             -0.107568435791199E+00
             -0.973952867387814E+00
              0.167409388470858E+01
              0.134885490116288E+01
             -0.304395832129549E+01
             -0.165152311125177E+01
             -0.725272398371487E+00
             -0.147157177942275E+01
             -0.456292704645834E+00
             -0.678929225627178E+00
              0.156569625571146E+01
              0.152232884492322E+01
             -0.102527367529438E+00
             -0.150031842595776E+01
             -0.293335029891231E+01
              0.170914703770164E+01
             -0.162364886974527E+01
             -0.125647423420553E+01
              0.255266569128480E+00
             -0.125197363370355E+01
             -0.140469485194304E+01
             -0.105179665409363E+01
             -0.172043395492166E+01
             -0.852097415754586E+00
             -0.173866005502483E+01
              0.194242793273085E+01
              0.209377713950560E+01
             -0.333898547666518E+00
             -0.749435957181969E+00
              0.106394138096515E+00
              0.147115265037453E+01
             -0.297535417987149E+01
             -0.829033106366687E+00
              0.173999801030594E+01
              0.240902725547512E+01
             -0.392115597151058E+00
              0.399080261475248E+00
              0.179874618441568E+01
              0.520157719682502E+00
             -0.266436843851636E-02
             -0.135334330759318E+01
              0.524692738641999E+00
             -0.115311483323267E+01
             -0.346407970353573E+00
             -0.715611920481141E+00
             -0.516861354492757E+00
              0.789576130477444E+00
              0.274027889012103E+01
             -0.229359589323358E+00
              0.787772139544378E-01
             -0.316038501172140E+01
             -0.629690922527555E+00
             -0.126519495304185E+01
              0.278513671900873E-01
             -0.157480052609130E+01
              0.305566917486798E+01
              0.300256179628339E+01
              0.645412839997584E+00
             -0.748139921110628E+00
              0.594535371540276E+00
              0.748891997794726E+00
             -0.158519855671742E+01
             -0.271437532048516E+00
              0.618952989775497E+00
              0.452737496536649E+00
              0.177926700282612E+01
              0.141252182463845E+01
             -0.749616802943407E+00
              0.812017791079992E+00
             -0.335459284382210E+01
             -0.107845198230490E+00
              0.310455375373879E+01
              0.616795909671854E+00
             -0.604865647418009E-01
              0.936886186349527E+00
             -0.820338703315125E+00
              0.308344270705626E+01
             -0.644497725178601E+00
              0.271872081088839E+01
              0.130517044924462E+01
             -0.150742287417693E+01
              0.113392010117530E+01
             -0.978467437125140E+00
             -0.234560120255959E+01
             -0.273162872793032E+00
             -0.190099506223851E+01
             -0.180946108914820E+01
             -0.663327161862020E-01
              0.125402670894897E+01
             -0.421054334666964E+00
             -0.109630874742335E+01
              0.247019308469222E+00
             -0.229641957926832E+01
             -0.141881164425478E+00
             -0.299696093512102E+01
              0.189075036449674E+01
             -0.158760799508996E+00
             -0.168827217293237E+01
             -0.615948462993564E+00
              0.601707225394987E+00
             -0.126051400248113E+01
             -0.154529961485402E+01
              0.309159113814994E+01
             -0.949661613336147E+00
             -0.137348321412138E+01
              0.105016724736446E+01
             -0.678581779116735E+00
              0.191615719443361E+01
             -0.288060649768340E-01
              0.138422031538760E+00
              0.372289036157887E+01
             -0.371772103070821E+00
             -0.132157706490074E+01
             -0.160536816087484E+01
             -0.182206991475753E+01
             -0.127202711850969E+01
              0.103831360245347E+01
              0.992239790661744E+00
              0.970654610115933E+00
              0.258512691620972E+01
              0.151570881527823E+00
              0.750169492120339E+00
             -0.206257975057406E+01
              0.555801313543896E-01
             -0.620561228281971E+00
             -0.918746066480182E+00
             -0.162638125867780E+00
              0.115449615032686E+01
              0.130894970851721E+01
             -0.699385590702555E-01
              0.395313103487940E+00
              0.975037188590499E+00
              0.124255462012764E+01
             -0.789863645075780E+00
             -0.332654487201630E+00
              0.371782715909452E-01
             -0.897919818386068E+00
             -0.163881289070176E+00
             -0.128433344705267E+01
              0.267191544997254E+01
              0.211461776695726E+01
             -0.565414636410576E+00
              0.520342930514614E+00
             -0.177022663600800E+00
             -0.101619297613013E+01
              0.127179620475880E+01
             -0.320691976847108E+00
              0.125545465991135E+01
             -0.168662220919494E+01
              0.610543264862205E+00
             -0.261155314617518E+00
             -0.187619308861638E+01
             -0.818855182989296E+00
              0.830504146422943E+00
             -0.335434014966431E+01
              0.134140568889801E+01
              0.163812414547117E+01
             -0.328341084550916E+00
             -0.245107245429297E+00
             -0.107919902012883E+00
              0.934608605918587E+00
             -0.115359688247269E+01
              0.108092029227979E+01
              0.111972904149199E+01
             -0.324630888267750E+01
             -0.125619226686419E+01
              0.820136545743431E+00
             -0.444698163514630E+00
              0.161409670071639E+01
             -0.212787662787449E+01
             -0.253134130344254E+00
             -0.139089487300618E+01
             -0.445858183092826E+01
              0.272840356994812E+01
             -0.210114217107247E+01
             -0.228525168725764E+01
              0.223862230762237E+00
              0.446272435945615E+01
              0.214881928054901E+00
             -0.105708901008308E+01
             -0.323320569862169E-01
             -0.155084859769198E+00
             -0.304096140150768E+01
             -0.195583150027140E+01
              0.294398171423648E+01
             -0.369976682118825E+00
             -0.128030795679242E+01
              0.173156012638862E+01
             -0.114716845480977E+01
              0.119584556783534E+01
              0.169308618904074E+01
             -0.191414916106350E+01
             -0.979706252355479E+00
             -0.113010098245108E+01
             -0.551704659556643E+00
             -0.693397409431303E+00
             -0.560781373640420E+00
              0.662928349914104E+00
             -0.121047261631084E+01
              0.972283472346179E+00
              0.195418893545737E+01
             -0.313320187396685E+00
             -0.676477505327435E+00
              0.489407727362050E+00
              0.189331605908858E+01
              0.188501591469871E+01
              0.269151331014617E+00
             -0.315780538216135E+00
             -0.336223304834109E+00
             -0.184305216794600E+01
              0.138013433658575E+01
             -0.882136609328080E+00
              0.752048363430685E+00
             -0.460976132239452E+00
              0.931104009631415E+00
              0.600950664453768E+00
             -0.283414262720833E+01
             -0.899507036779486E+00
             -0.271829706948081E+01
             -0.136760612927433E+01
              0.193529516309597E+00
             -0.668375190486191E+00
              0.118925998885895E+01
             -0.972556019927023E+00
              0.950929040229878E-01
              0.261977412509157E+00
              0.250748163177521E+01
              0.128518066370459E+01
             -0.107418915824370E+01
             -0.285164815577357E-01
              0.510906811374742E+00
              0.128874867583149E+01
             -0.518028143178029E-03
              0.192342604833016E+01
              0.977227237263145E+00
              0.310911560195656E+01
              0.145269035502084E+00
              0.219755897953874E+01
             -0.939654384887399E+00
             -0.137978173450891E+01
              0.133937328122697E+00
              0.355614849854913E+00
              0.846901774497205E+00
             -0.590588055123032E+00
             -0.414754864809552E+00
              0.789324644992393E+00
             -0.161940202862422E+01
             -0.201060766159622E+01
              0.272584746967741E+01
             -0.217981626470710E+00
             -0.132769715172888E+01
             -0.170328176318683E+00
             -0.473728394212632E+00
              0.142149854230518E+01
              0.125554047434635E+01
             -0.685924316257879E+00
             -0.283207961692673E-01
             -0.926413698061998E+00
             -0.120795321655594E+01
             -0.893745872080686E+00
             -0.338005669184017E+01
             -0.191026096212719E-01
             -0.228737184122223E+01
             -0.202380801004530E+01
             -0.134435742187691E+01
              0.726338120191748E+00
             -0.135339088956019E+01
              0.800151883764405E+00
             -0.218298056115310E+01
             -0.502852571237256E-02
             -0.147397228303128E+01
              0.236263825660576E+00
              0.275387116141271E+00
              0.115327316881191E+01
             -0.693632079162033E+00
             -0.660997583636917E+00
              0.105950436534201E+01
              0.207377462602117E+01
              0.111417472999445E+01
              0.356390136080513E+00
             -0.254085081988859E+01
             -0.497842663912022E+00
             -0.961685040368959E+00
             -0.215499454830991E+01
              0.147955824868430E+01
             -0.117673609291410E+01
             -0.260106127302477E+00
             -0.909950060670075E+00
             -0.346065522759709E+01
              0.193589503243129E+01
             -0.597379842501994E+00
              0.135015065558471E+01
             -0.257588426956175E+01
              0.224818319493378E+01
              0.196097672446067E+00
             -0.940092669629889E+00
              0.301516145290501E+00
             -0.737154962484059E+00
             -0.223803310417196E+01
              0.612822329560231E+00
              0.123709083941281E+01
             -0.120155932343948E-01
             -0.120424118892807E+01
             -0.505787533089261E+00
              0.688294507301944E+00
              0.124010086721564E+01
              0.216613582329011E+01
              0.783819160916980E+00
             -0.809254459536279E+00
              0.335458851175311E+01
              0.811538205745371E+00
              0.156785477760810E+01
             -0.548870188361832E+00
              0.104475028053826E+01
              0.760042025585138E+00
             -0.213122168806394E+01
             -0.769842043655449E+00
             -0.137322513860091E+01
             -0.134288946646707E+01
             -0.384803200878538E+00
             -0.339332918071939E+00
             -0.150705956235015E+01
             -0.387387216262380E+01
             -0.948192417017624E+00
              0.510685688490501E+00
              0.205205842683498E+00
              0.486636371325640E+00
              0.146691077891979E+01
              0.441745605933303E+00
              0.110207407141993E+01
             -0.152821403829648E+01
              0.149652331327884E+01
             -0.143201918564011E+01
             -0.236097774634808E+01
              0.685090145329518E+00
             -0.141347915900816E+01
             -0.140063645382269E+01
             -0.551947515585404E+01
             -0.272511827550677E+00
              0.288613982841564E+01
              0.145228716138788E+01
             -0.339341972507079E+00
             -0.363101255938254E+00
              0.140374687800474E+01
              0.221416434150979E+01
             -0.135486023190987E+01
             -0.459736272945463E+00
             -0.122234229681935E+01
             -0.116411406136066E+01
             -0.106858956846375E+01
              0.430362622748357E+00
              0.245825006951354E+01
             -0.226449353716263E+01
             -0.187995882701734E+01
              0.112439373004129E+00
             -0.477211848500437E+00
             -0.623918274578101E+00
             -0.312876283588226E+01
              0.208538901267912E+01
              0.708270383390168E+00
              0.280948880929266E+00
              0.182246775075447E+01
             -0.111014353231520E+01
              0.116759621936054E+01
              0.100876048884844E+01
              0.110018198904875E+00
             -0.279584880838706E+00
              0.328741528670241E+00
             -0.528095808122558E+00
              0.177218081113764E+01
             -0.142582144052344E+01
              0.156840617570067E+01
              0.328156385657159E+00
              0.539523382099714E+00
              0.690962390116379E+00
             -0.280606902214041E+01
              0.295135974549883E+00
             -0.228225672487737E+01
             -0.168874998961758E+01
             -0.167347838782290E+01
             -0.177216592794296E+01
              0.224232793512904E-01
              0.608722654683341E+00
              0.171752905346220E+01
              0.276652879809261E+00
              0.494592224460466E+00
             -0.242165839984237E+01
             -0.978537050891647E+00
              0.112669489912952E+01
             -0.621510914745871E-01
             -0.915744830762115E-01
             -0.339506384462670E+00
              0.125701019390328E+01
             -0.314778634236106E+01
              0.468730935092874E+00
              0.773701428750850E+00
              0.138249066657064E+01
              0.130650643124662E+01
             -0.196986683765252E+01
              0.508639642451104E+00
              0.204127204021436E+00
              0.244047047353556E+00
              0.149112784840677E+00
             -0.682017813960822E+00
             -0.145084395680999E+01
              0.606482852827498E+00
              0.203084311247833E+01
             -0.773009117582859E-01
              0.465130391481193E+00
              0.428445245748899E+00
             -0.104783407405651E+01
             -0.108121767636671E+01
             -0.422718384745643E+01
             -0.134454550637411E+01
             -0.195430506390124E+01
             -0.241265999224176E+00
             -0.232630096187614E+01
              0.262731982584872E+01
             -0.114785170716841E+01
             -0.187916404267063E+01
             -0.544033083169479E+01
              0.234880795314322E+01
              0.495570255046177E+00
              0.228626427601882E+00
             -0.211315460835317E+01
              0.153567312375923E+00
             -0.531985287043280E+00
             -0.108981299747764E+01
              0.282429474690567E+00
              0.110772299575092E+01
              0.192975433861594E+00
             -0.675097893042455E+00
              0.838871164672099E-01
              0.331422265915986E-01
              0.433993580054352E+00
             -0.229501027913892E+01
              0.250530400161887E+01
             -0.143984676557718E+01
             -0.911164143567520E+00
             -0.171535100416127E+01
             -0.369527968988417E+01
              0.200385288604649E+00
             -0.192923828184366E+01
             -0.680510317117809E+00
              0.108420623739088E+01
             -0.914639684110517E+00
             -0.343384285336885E+00
             -0.431943344653825E+00
             -0.757383592176893E+00
              0.995768899938434E-01
              0.177322196673582E+01
             -0.178143020723174E+01
              0.353552910081338E+01
             -0.821861729399313E+00
              0.115758451063710E+01
             -0.560799169471121E+00
              0.440102290976300E+00
             -0.425088388629137E+00
              0.157704217088370E+01
              0.220457721936142E+01
              0.635335369605933E+00
              0.163057477195964E+01
             -0.107720638020153E+01
             -0.216589726971284E+00
             -0.847565140713936E+00
              0.218835412886875E+01
              0.188588480393561E+01
              0.138613142762825E+01
             -0.475589588861631E+00
             -0.910742004754825E+00
              0.843494005767883E+00
             -0.966105060279475E+00
             -0.494500510577055E+00
             -0.226157987071378E+00
             -0.118216545461218E+01
              0.173437354566783E+01
             -0.347553154000547E+00
              0.125951947330006E+01
              0.700177644691324E+00
              0.558655044324878E+00
             -0.119214037699998E+01
              0.931935104091083E+00
             -0.486667739886231E+00
             -0.246458526331443E+00
             -0.446476907541502E-01
             -0.170520149798516E+01
              0.270207098882778E+01
             -0.974823522261350E+00
              0.959486222392769E-02
              0.814491447251420E+00
              0.697451007748267E+00
              0.264785205656438E+01
             -0.764523659511141E+00
              0.261772881437157E+01
              0.232493829913252E+01
             -0.325353704927458E+01
              0.277614651781839E+00
             -0.647417481228944E+00
              0.384038148111250E+00
              0.144479802107618E+00
              0.709664105735204E+00
              0.221546617710197E+01
              0.336491974903005E+01
             -0.258031397573406E+01
              0.264555017210598E+01
             -0.342857526709145E+01
             -0.290951530324571E+01
             -0.482114327279938E+00
              0.459195060291240E-01
              0.268305072935277E+01
              0.116139850741787E+01
             -0.520537780684236E+00
             -0.295132855662831E+01
              0.233064186355776E+01
             -0.145925916824315E+01
              0.543014042207624E-01
             -0.156915232398962E+00
              0.450609495087071E+01
             -0.826127944111326E+00
             -0.363487392239299E+01
              0.106923625360188E+01
             -0.563151340722343E+01
              0.455330224100613E+00
             -0.133226985744887E+01
             -0.592791013464525E+00
             -0.932758791376337E+00
             -0.206067143581673E+01
              0.129778370104019E+01
             -0.123578762720144E+01
             -0.454238203556081E+00
             -0.263161137769485E+01
             -0.171313947070493E+00
             -0.184690681631824E+01
             -0.264621830661223E+01
             -0.378927523093338E+01
              0.291611558273599E+00
             -0.122969975370208E+01
              0.254190266168713E+00
             -0.436469469864722E+00
             -0.284710361927404E+01
             -0.220417830751268E+01
             -0.194128139388831E+01
             -0.196683581601770E+01
              0.180626657623878E+01
              0.267636229265113E+00
             -0.170039621586350E+01
             -0.826193544099286E+00
             -0.925843943125309E+00
              0.139563155965254E+01
             -0.111084633479322E+01
             -0.226503450545720E+00
             -0.101366910153084E+01
             -0.138272559565939E+01
             -0.140360574333445E+01
              0.141992814059140E+01
             -0.443719494066725E+00
             -0.313696534866270E+01
              0.272660641914571E+01
              0.160415920712778E+01
              0.138110592663731E+00
             -0.275954242145187E+01
             -0.260165667779865E+01
              0.231633627736475E+00
              0.384081804549261E-01
             -0.116340186394292E+01
             -0.157542899773529E+01
              0.110359488037344E+01
             -0.203450870045700E+00
              0.935630963402149E+00
              0.163753329126730E+01
              0.123001709924396E+01
              0.902178171276599E+00
              0.771246993988373E+00
             -0.771490733342135E+00
             -0.508197593419720E+00
             -0.628199955347271E+00
             -0.130827321869064E+01
             -0.165920444097338E+01
             -0.214121827554673E+01
             -0.126837210550716E+01
             -0.421554877993674E+00
             -0.261970461227124E+01
             -0.542941496919468E+00
              0.116327267112094E+01
             -0.282462407321238E+01
              0.120359557862741E+01
              0.935725703405540E+00
             -0.246610600397077E+01
             -0.194842789652480E+01
             -0.747570601088285E+00
              0.488595118829847E+00
             -0.142105739082620E+01
              0.259300473492877E+01
              0.229525386100253E+01
             -0.265907605122083E+01
              0.152559278955185E+01
              0.125185825815428E+01
              0.331962260120337E+00
              0.690968037159941E+00
             -0.146272359480182E+01
             -0.539094681033860E+00
              0.202856605469300E+00
              0.688985905704657E+00
              0.146472821116984E+01
             -0.188126301724585E+01
             -0.334338937007081E+00
              0.585076723517796E+00
              0.213719765490200E+00
             -0.115271172345735E+01
              0.639670117433408E+00
             -0.892506858911116E+00
             -0.596990928901146E+00
              0.146493552295013E-02
             -0.213636884213682E+01
              0.116704535795069E-01
             -0.403478096740884E+00
             -0.524245092804305E+00
              0.450352014373234E+00
             -0.184910744378360E+01
              0.197641782224760E+01
             -0.760627277953262E+00
             -0.461501090476561E+01
             -0.299713731545227E+01
              0.122646362593737E+01
             -0.139045660481225E+01
             -0.747961433265122E+00
             -0.869284326232794E+00
             -0.639288654191292E+00
             -0.357297166924192E+01
             -0.934774604237454E-01
             -0.215032518114496E+01
             -0.112685399685749E+01
              0.751961986374578E+00
              0.267957200777482E+01
              0.123516205236294E+00
              0.891623955049896E-01
              0.207274997344324E+01
             -0.192277239779811E+01
              0.102030122691883E+01
              0.235474520557893E+00
             -0.175132058908140E+01
             -0.966793864752885E+00
              0.700699391348472E+00
              0.885247301263514E-01
              0.541929949087068E+00
              0.499100909205703E+00
             -0.822771109054726E+00
             -0.107278560632206E+01
             -0.172384927083183E+01
              0.170774183863838E+01
             -0.233656474147552E+01
             -0.171737209910449E+01
              0.507364634580171E+00
             -0.295795806089245E+01
              0.756845969625058E+00
              0.203623477197131E+01
             -0.369385966708772E+00
              0.620990551688229E+00
             -0.109389661280609E+01
             -0.761622360014252E+00
              0.383251525834050E+00
              0.125677183458957E+01
             -0.128682450353243E+01
              0.812973509113008E+00
             -0.487562279092169E+00
              0.147440540265652E+00
              0.687143736410971E+00
              0.393116444445976E+00
             -0.377558175359447E+00
             -0.238398179232320E-01
              0.502426518294428E+00
              0.953461697443961E+00
             -0.244561719379880E+01
             -0.323625739781974E-01
              0.187911435894996E+01
             -0.312188079500772E+01
              0.114396186409014E+01
             -0.398156284157216E+01
             -0.368585535164852E+00
             -0.505547782389845E+00
             -0.104769718424794E+00
             -0.402205853798922E+00
             -0.971470913154423E+00
             -0.317898999748738E+00
              0.513363492222903E+00
             -0.824260496841188E+00
              0.383443075276602E+00
              0.311012446462957E+01
             -0.202579034358522E+01
             -0.898203297123404E+00
              0.140581865584963E+01
              0.728355406817403E+00
              0.142814037436822E+01
              0.638626040372939E+00
              0.674643116123442E+00
             -0.507144628842296E+00
             -0.171994942839996E+01
             -0.152125801935756E+01
             -0.111380837265120E+01
              0.158767814850606E+00
             -0.145017132367595E+01
             -0.408029362314355E+00
              0.226044330114514E+00
              0.848501682582810E+00
             -0.249722147652328E+00
              0.201968227712301E+01
             -0.218317401154911E+01
             -0.646235328817113E-01
             -0.269828967520659E+00
              0.108110011263826E+01
             -0.152175462816585E+01
             -0.977637910710405E+00
              0.564680669130199E+00
              0.163761473655728E+01
              0.256695215865463E+01
              0.109237267015247E+01
              0.157014631437614E+01
             -0.892222459265965E+00
              0.216863157322253E+01
              0.220080388459061E+01
             -0.966639320466101E-01
              0.114171000538892E+01
              0.133752784454607E+01
             -0.738554308596229E+00
              0.406240243155088E+00
              0.227378760194607E+01
             -0.764644160115838E+00
             -0.273011969710101E+00
             -0.218067514296960E+01
              0.814546207028339E+00
             -0.458264294816126E+00
              0.729752178859801E+00
              0.102828876082373E+00
             -0.137716597629458E+01
              0.158627847171785E+01
              0.137895296108506E+01
             -0.104600475081976E+01
              0.577697772616601E+00
             -0.202695388922953E+01
             -0.188878127397489E+01
              0.871037355857002E+00
             -0.238284610984199E+01
             -0.118146074366336E+01
              0.944929720339154E-01
              0.295618405127764E+01
             -0.779627599055182E+00
             -0.352638508457184E+00
             -0.659770726450795E+00
              0.389232337132639E+01
              0.653072643043902E+00
             -0.145974545657167E+01
              0.241908393867839E+01
              0.214920209057696E+01
              0.113141623380494E+01
              0.273494833601355E+01
              0.296093247228847E+01
             -0.175344122410102E+00
             -0.103412006488250E+01
             -0.905693540844766E+00
              0.929189330329134E+00
              0.134137085660377E+01
             -0.228203181357221E+00
             -0.814443385521701E+00
             -0.199094661137101E+01
             -0.788383967753830E+00
             -0.161225947312374E+01
              0.115493315415333E+01
              0.577871541272749E+00
              0.206559510633923E+01
              0.409875028094882E+00
             -0.822928314522144E+00
             -0.317368319343783E+00
              0.139843836507771E+01
              0.379072748333378E+00
              0.207111326410668E+01
              0.193482162150099E+01
             -0.339618132698602E+00
             -0.276564562727246E+00
             -0.346764628102692E+01
              0.172905279482434E+01
             -0.483431344932725E-01
              0.193201477985794E+01
             -0.847993084996248E+00
             -0.225899453378498E+01
              0.663017349684014E+00
              0.250072171429342E+01
             -0.881208570950968E+00
              0.232107786734510E+01
             -0.248364899350720E+01
             -0.891641988440832E+00
             -0.293445864831075E+01
              0.632656222103924E+00
              0.225540130343358E+00
              0.248782056100701E+00
             -0.213727779093373E+01
              0.316490723089495E+01
              0.184811164215133E+01
              0.219062661894581E+00
             -0.179887819390549E+01
              0.692132678705576E+00
             -0.690532183475364E+00
             -0.473019502581295E+00
             -0.899622251697576E+00
              0.601921606372277E+00
             -0.520211448344078E+00
             -0.635127250060708E+00
              0.785538472765335E+00
              0.817989725590404E+00
             -0.310148186272411E+01
              0.680505861282121E+00
              0.228731591413104E+01
              0.147149209217550E+01
             -0.479445739187249E+00
             -0.289789753798129E-01
             -0.127010751922149E+01
              0.195969765766214E+01
              0.365264988022691E+00
             -0.110550809313152E+00
             -0.190618818420926E+00
              0.378991164693111E+01
             -0.198416872207176E+00
              0.869462626255983E+00
              0.254669456641880E+01
              0.336408947592666E+01
              0.207721549998399E+01
              0.139031148694446E+01
             -0.216700538524922E+01
             -0.159103532732367E+01
              0.126056982985390E+01
              0.994307443050850E-01
              0.106907004097324E+01
              0.455115714155061E+00
              0.220265327525537E+01
             -0.275002767344701E+01
             -0.170842254336492E+01
             -0.363276830623646E+00
             -0.300997551631488E+01
              0.653538411876871E+00
              0.154477668987227E+01
              0.123587070323570E+00
             -0.715879746850465E+00
              0.726253767680960E+00
              0.469346351743349E+01
              0.107083688642140E+01
              0.614861770672629E+00
             -0.167747335297877E+01
             -0.206218209751622E+01
             -0.463489446492642E+00
              0.965989867702671E+00
             -0.208278825894574E+00
              0.838718253429394E+00
              0.119911747279294E+01
             -0.217749938999317E+01
              0.937547770384008E+00
              0.127164545447716E+01
              0.200462643895257E+01
             -0.342942655896621E+00
              0.146711479805951E+00
             -0.246608684484662E+00
             -0.156844844419355E+01
             -0.252660993661615E+01
              0.268750743923592E+01
             -0.354271860784275E+00
             -0.187895674233947E+01
              0.240190248863833E+00
             -0.102231054180935E+01
              0.296535257034407E+01
             -0.756831448468585E+00
             -0.128713344731513E+01
              0.122798397996869E+01
             -0.526557748798082E+00
              0.161062598328367E+01
              0.417300841127677E-02
              0.325194579751241E+01
              0.178362170983118E+01
              0.338459231661938E+00
             -0.134915381900628E+01
              0.980016773501447E+00
             -0.188530476501596E+01
             -0.180687455747278E+00
              0.221575567087196E+01
             -0.880767249590010E+00
             -0.152133736233375E+01
             -0.773472993709150E+00
              0.178683822770945E+01
              0.433656087697275E+00
             -0.284139601453838E+01
              0.118230964936240E+01
              0.276010901178505E+00
              0.362735975833713E+00
             -0.166766933964509E+01
              0.316520795307911E+00
              0.119929455695863E+01
              0.163666727170633E+01
              0.220909855484552E+01
              0.117575689893305E+01
              0.282757173605250E+00
             -0.186949420237221E+01
             -0.144950497893886E+01
             -0.230340091988597E+01
             -0.448555452074672E+00
              0.116439638007964E+01
             -0.279825070371116E-01
              0.179320842704376E+01
             -0.110649120735916E+01
              0.610660013328905E+00
             -0.728965346301712E+00
             -0.920949943661451E+00
              0.201328435645320E+01
              0.187193444313046E+00
              0.212976553125310E+01
              0.188024206615694E+00
              0.713594081554203E+00
             -0.540650996921309E+00
              0.209529150013095E+01
             -0.510699887172907E+00
             -0.351565344302418E-01
             -0.269170110041893E+01
             -0.263435034060780E+00
              0.241698057414894E+01
              0.227056603258183E+01
              0.836398546949366E+00
             -0.538061480948851E+00
              0.131205228579478E+00
             -0.767635353956417E+00
             -0.585791283417628E+00
              0.306951281551033E+01
              0.214716293739222E+00
             -0.982679743282095E+00
             -0.371446791894619E+01
             -0.156486754569018E+01
             -0.129252706032472E+01
             -0.216600864226070E+01
             -0.204762624244794E+01
             -0.246885217380446E+01
             -0.155009836927806E+01
             -0.994498635211279E+00
             -0.164415650446506E+01
              0.153116371929120E+01
             -0.653036261105662E+00
             -0.305500419807618E+01
              0.144353610980614E+01
             -0.114158654197218E+01
             -0.274645413873151E+01
              0.348536027846547E+01
             -0.869104525756224E+00
              0.542440592264990E+00
              0.133121409777521E+01
              0.389677421135277E+00
              0.867072096247371E+00
              0.283249209989531E-01
              0.360153458286011E-01
             -0.417740187721530E+00
             -0.251726229763095E+01
              0.374781369222579E+00
             -0.419749146760418E+01
              0.243103801746663E+01
             -0.139533117227411E+01
             -0.611444509239181E+00
             -0.692618322439728E+00
              0.709114686119570E+00
             -0.568650711208271E+00
              0.101240079740151E+01
             -0.201032610367378E+01
              0.127386838898025E+01
              0.144335460704509E+01
              0.371974644970941E+00
              0.296889367398515E+00
              0.741839849998959E+00
              0.322806806284234E+00
              0.106023461099710E+01
             -0.181770436695825E+00
             -0.248085964566980E+01
              0.341022227636305E+00
             -0.116040343101636E+01
             -0.103807058838953E+00
              0.186899702466123E+01
             -0.277075702615123E+01
              0.495821829247394E-01
              0.952294203660031E-01
              0.313618333312924E+00
              0.107389846540465E+01
             -0.445304877519947E+00
              0.291439439591369E+01
              0.134952022317700E+01
             -0.529446805664444E+00
             -0.347972264726433E+00
              0.199392634765138E+00
              0.273007164657954E+01
             -0.172111018396345E+01
             -0.350715003890319E+01
              0.989224835250932E+00
             -0.256795991897192E+00
             -0.511466452199249E+00
              0.662287776811808E+00
              0.264514273193839E+01
              0.146786203634251E+01
             -0.595434745664694E+00
             -0.184980558043376E+01
             -0.408323761959712E+00
              0.960823158371855E+00
             -0.601038144034639E+00
             -0.260139395295102E+01
             -0.282493216581878E+00
             -0.334711937934907E+01
             -0.176257692005597E+01
              0.296243224479252E+01
             -0.178694727888807E+01
             -0.245622144633376E+01
             -0.183963663304646E+01
             -0.135530927478770E+01
              0.114885583930648E+01
              0.292750297470613E+01
             -0.285080691329402E+00
              0.928003825216902E+00
             -0.672822247099757E+00
             -0.234465226783120E+01
              0.178210754153094E+01
             -0.166150677364677E+01
              0.902290563891492E+00
              0.102491313866921E+01
             -0.520797838201517E+00
              0.135095798171152E+01
              0.136765327193439E+01
              0.410285437345611E+01
             -0.388235827499372E+00
             -0.187983389042070E+01
             -0.229817453176333E+01
             -0.636426423513661E+00
             -0.137250021403604E+01
              0.326976634888135E+01
             -0.155471599143734E+01
              0.348624562089318E+00
              0.109959251667455E+00
             -0.696574978829939E+00
             -0.293016351694567E+01
             -0.227985763026473E+00
              0.345832508787529E+01
              0.709645745066934E+00
              0.272243866644969E+00
             -0.197589242206523E+01
             -0.188127188268944E+01
             -0.582460576805870E+00
              0.156873768199706E+01
             -0.914275881111884E+00
              0.350321756172809E+01
             -0.158312360317923E+01
              0.659043052030848E+00
             -0.520581310291142E+00
             -0.212765636445935E+01
              0.233697588214714E+00
             -0.193896170280636E+01
             -0.255036371064664E+01
              0.353950288895289E+00
              0.567673634546439E-01
              0.169433393511986E+01
              0.918480739104606E+00
             -0.119945212430415E+01
              0.790814691012809E+00
             -0.300480072266910E+01
             -0.166433525939705E+01
              0.322544508032089E+01
              0.176109374984625E+00
             -0.216799740564390E+00
             -0.891566220221222E+00
             -0.166247010680358E-01
             -0.385866686408626E+00
              0.312182554817455E+01
              0.140789608748109E+01
             -0.330373608364582E+00
             -0.473031785718323E-01
             -0.134097970451562E+01
             -0.492046178936395E+00
             -0.217825770613588E+01
              0.177249294432279E+01
              0.222385428521084E+00
              0.292291497240498E+00
              0.606846050140188E+00
             -0.448659037371981E+00
             -0.767902513118483E+00
              0.215993786478046E+00
             -0.383117590774896E+01
             -0.386451079019793E+00
             -0.299215431862448E+00
             -0.220186581147762E+00
              0.175039912767222E+01
              0.221020096650739E+01
              0.598705413438722E+00
             -0.323007132002776E+01
              0.222177917203987E+01
             -0.842018861237321E+00
             -0.129109568070210E+01
             -0.303632159971773E+01
             -0.984284203051442E+00
              0.212430047980788E+01
              0.112830456211833E+01
              0.558045218407594E+00
              0.120505279991528E+01
             -0.193148096661306E+01
             -0.167678893830531E+01
              0.214837609690349E+01
              0.144486738607700E+01
              0.166009844532541E+01
              0.205560545144452E+00
              0.349371782350669E+00
              0.183345334162090E+01
              0.344308185194746E+01
             -0.657946836278684E+00
              0.138445616562344E+01
             -0.907152827026998E+00
             -0.152059533790456E+01
             -0.118955037072637E+01
             -0.112276230669100E+01
             -0.476812293220737E+00
             -0.166878236452446E+01
             -0.702770831432117E+00
             -0.451121887365977E+01
              0.107970893717107E+01
              0.967635541280003E+00
             -0.974958262107291E-01
             -0.130798859041382E+01
             -0.671948830458257E+00
             -0.193305403382381E+01
              0.221583099376645E+00
              0.275808583487507E+01
             -0.637689366886626E+00
             -0.644723042462978E+00
              0.655196426402785E+00
             -0.172477940274091E+01
              0.300606526685891E+01
              0.562575252688059E+00
              0.257530470019951E+00
              0.182933773352118E+01
             -0.163200434742185E+00
              0.204691652597672E+01
              0.673602295725852E+00
             -0.101249073683107E+00
              0.469375913132233E+00
             -0.300449916950058E+00
              0.237415507894356E+01
              0.242710030355463E+00
              0.704336198861547E+00
             -0.295586054149616E+00
              0.365910167864660E+00
             -0.326106034263156E+01
             -0.126394335007114E+01
             -0.169823285037001E+01
              0.179313349732662E+01
             -0.121593021603941E+01
             -0.197621340411978E+01
              0.207234559612657E+01
             -0.493363095677271E+00
              0.145253439425758E+01
             -0.312783167134641E+01
              0.670030114583581E+00
              0.163879519945122E+00
              0.194954198292912E+00
             -0.440991942935923E+00
             -0.217949533465625E+00
              0.173247939933156E+01
              0.990088729436085E-01
             -0.179333219302516E+01
             -0.724018337905749E+00
              0.695653340657728E+00
             -0.401284882904943E+01
             -0.306300956806176E+01
              0.404066162571102E-01
              0.530761384766328E+00
             -0.171703333143334E+01
              0.107822599504903E-01
              0.360102687631394E+01
              0.107879105833279E+01
             -0.187320253674033E+01
              0.279210589181702E+00
             -0.361989280116997E+00
              0.430538525684050E+00
             -0.120862120592232E+01
              0.762069062978960E+00
              0.822922704215154E+00
             -0.317043439790689E+00
              0.390110359878633E+01
             -0.168358769220146E+00
             -0.109549347742282E+01
              0.105369287699749E+01
              0.148145789610496E+01
             -0.114709253433614E+01
             -0.318535880757238E-01
              0.338511219117140E+01
             -0.588490063154765E-01
              0.180084687681517E+01
              0.569333891360623E+00
             -0.272957689119947E+00
             -0.551460482839477E+00
              0.170898204338885E+01
             -0.206577293184145E+01
             -0.855015030450508E-01
             -0.678413976113330E+00
             -0.141766927466729E+01
              0.378262002816866E+00
              0.825263140535609E+00
             -0.179323704125665E-01
             -0.736113852529847E-01
             -0.141545001063793E+01
              0.556491555213278E+00
             -0.463717785629116E-01
             -0.783639630327749E+00
             -0.719609697083834E+00
              0.634916735707509E+00
             -0.275394552158339E-01
             -0.133916928645733E+01
             -0.370737672844807E+01
              0.204942826636427E+00
              0.572562632519376E+00
             -0.166383011224972E+01
             -0.849519586279566E+00
              0.284450701426530E+01
              0.406870622385055E+00
              0.151192003749535E+01
              0.351970420131739E+00
              0.137528201929322E+01
              0.797658880095291E-01
             -0.139665248296243E+01
             -0.349748299191415E+00
              0.192705688059874E+00
              0.106544469381724E+01
              0.264861274966460E+01
              0.170482508082444E+01
              0.938137261537708E-01
              0.376079885083806E+00
              0.209355618008923E+01
              0.971365293937103E+00
             -0.244892357208115E+01
             -0.962441222047126E+00
              0.417548129817209E+00
              0.349574858525747E+00
              0.887714059283896E+00
             -0.179612806238210E+01
              0.198261891585247E+00
              0.140735809912324E+01
              0.170062745774443E+01
             -0.148321348727112E+01
              0.614455575263264E-01
             -0.967909664378315E-01
             -0.728614798037746E+00
             -0.917212747139127E+00
             -0.429226075957047E+00
             -0.361803072769383E+00
              0.370893976405428E+00
              0.145180327665738E+01
             -0.112768794745617E+01
              0.280566031502791E+01
              0.118417241702617E+01
              0.900964447155388E+00
              0.126927381762120E+01
              0.902090737005182E+00
              0.117102979278952E+01
              0.193147758186763E+01
             -0.164375671417352E+01
              0.217764258937009E+01
             -0.393027871660802E+01
              0.110687989791709E+01
             -0.366694192276725E+01
              0.279965861271936E+01
              0.271953546934357E+01
             -0.295660848179914E+00
             -0.164722862278848E+01
             -0.147204875715041E+01
             -0.189052550985273E+01
             -0.226396700590248E+01
              0.188537160801300E+01
              0.149991839978182E+01
              0.849392607771231E+00
              0.934227801962084E+00
              0.150992961603453E+01
             -0.140917636473764E+01
             -0.514161607010937E+00
              0.185173818376326E+01
             -0.410561506381493E+00
              0.170917150841928E+01
              0.267268535370112E+01
             -0.104749435467512E+00
             -0.260422841053607E+01
              0.149979750186304E+00
              0.705263976132812E-01
             -0.367663053017980E+00
              0.119910976319657E+00
             -0.225859398467840E+01
             -0.350579296075415E+00
              0.453215693927060E+00
              0.447718919314696E+00
              0.172803962472960E+01
             -0.145027992043811E+01
              0.185822006003756E+01
             -0.134294800976705E+01
              0.920801118716941E+00
              0.151168442866824E+01
 
 BEEF-vdW xc energy contributions
           1 :   -24.7945495177148     
           2 :    20.7721618043558     
           3 :   -14.8846381815728     
           4 :    9.23880377714023     
           5 :   -4.86105402321886     
           6 :    1.96066876903799     
           7 :  -0.328804261415055     
           8 :  -0.427355275725276     
           9 :   0.718344281141473     
          10 :  -0.859702364141349     
          11 :   0.987449836891141     
          12 :   -1.07805221848867     
          13 :    1.05674322453257     
          14 :  -0.902959486361869     
          15 :   0.666398641227140     
          16 :  -0.427008348940866     
          17 :   0.247281512249231     
          18 :  -0.150602466667145     
          19 :   0.115858866968864     
          20 :  -9.660004719022552E-002
          21 :   5.257934865420566E-002
          22 :   2.439829563596163E-002
          23 :  -0.114619340256400     
          24 :   0.187360324057185     
          25 :  -0.218632207447595     
          26 :   0.202525129423929     
          27 :  -0.153226603655739     
          28 :   8.981002323375264E-002
          29 :  -2.628207903542190E-002
          30 :  -3.045215836372606E-002
          31 :   -3.17127388222367     
          32 :   -2.01151006714544     

     Writing output data file ./pwscf.save/
 
     init_run     :     80.51s CPU     83.67s WALL (       1 calls)
     electrons    :    759.89s CPU    826.04s WALL (       1 calls)
     forces       :     37.70s CPU     40.54s WALL (       1 calls)

     Called by init_run:
     wfcinit      :      3.59s CPU      3.71s WALL (       1 calls)
     potinit      :     60.98s CPU     63.08s WALL (       1 calls)
     hinit0       :     13.56s CPU     13.70s WALL (       1 calls)

     Called by electrons:
     c_bands      :    166.70s CPU    168.37s WALL (      17 calls)
     sum_band     :     74.22s CPU     87.03s WALL (      17 calls)
     v_of_rho     :    380.13s CPU    415.13s WALL (      18 calls)
     newd         :     29.66s CPU     42.73s WALL (      18 calls)
     PAW_pot      :      3.28s CPU      3.28s WALL (      18 calls)
     mix_rho      :    158.29s CPU    164.49s WALL (      17 calls)
     vdW_kernel   :     33.91s CPU     33.92s WALL (       1 calls)

     Called by c_bands:
     init_us_2    :      2.50s CPU      2.55s WALL (      35 calls)
     regterg      :    161.34s CPU    163.00s WALL (      17 calls)

     Called by *egterg:
     rdiaghg      :      0.05s CPU      0.05s WALL (     151 calls)
     h_psi        :    141.66s CPU    141.70s WALL (     152 calls)
     s_psi        :      4.97s CPU      4.97s WALL (     152 calls)
     g_psi        :      0.45s CPU      0.45s WALL (     134 calls)

     Called by h_psi:
     h_psi:calbec :      4.26s CPU      4.26s WALL (     152 calls)
     vloc_psi     :    131.64s CPU    131.65s WALL (     152 calls)
     add_vuspsi   :      5.02s CPU      5.02s WALL (     152 calls)

     General routines
     calbec       :      5.20s CPU      5.20s WALL (     173 calls)
     fft          :    348.48s CPU    348.50s WALL (    2991 calls)
     ffts         :     70.56s CPU     70.56s WALL (     623 calls)
     fftw         :    129.02s CPU    129.02s WALL (    1133 calls)
 
     Parallel routines
 
     PWSCF        :  24m30.33s CPU  26m47.28s WALL

 
   This run was terminated on:  23:27:39   3Jan2023            

=------------------------------------------------------------------------------=
   JOB DONE.
=------------------------------------------------------------------------------=
