
     Program PWSCF v.6.7MaX starts on 16May2022 at  9:25:30 

     This program is part of the open-source Quantum ESPRESSO suite
     for quantum simulation of materials; please cite
         "P. Giannozzi et al., J. Phys.:Condens. Matter 21 395502 (2009);
         "P. Giannozzi et al., J. Phys.:Condens. Matter 29 465901 (2017);
          URL http://www.quantum-espresso.org", 
     in publications or presentations arising from this work. More details at
     http://www.quantum-espresso.org/quote

     Parallel version (MPI), running on     1 processors

     MPI processes distributed on     1 nodes
     Reading input from ch4_ensemble.in
Warning: card &CELL ignored
Warning: card / ignored

     Current dimensions of program PWSCF are:
     Max number of different atomic species (ntypx) = 10
     Max number of k-points (npk) =  40000
     Max angular momentum in pseudopotentials (lmaxx) =  3
     file C.pbe-n-kjpaw_psl.1.0.0.UPF: wavefunction(s)  2S 2P renormalized
     file H.pbe-kjpaw_psl.1.0.0.UPF: wavefunction(s)  1S renormalized

     **************************************************************************
     Initializing libbeef V0.1.2 with the BEEF-vdW functional.
     Citation: Wellendorff et al., PRB 85, 235149 (2012).
     **************************************************************************


     IMPORTANT: XC functional enforced from input :
     Exchange-correlation= BEEF-VDW
                           (   1   4  43  14   2   0   0)
     Any further DFT definition will be discarded
     Please, verify this is what you really want


     gamma-point specific algorithms are used

     Subspace diagonalization in iterative solution of the eigenvalue problem:
     a serial algorithm will be used

 
     G-vector sticks info
     --------------------
     sticks:   dense  smooth     PW     G-vecs:    dense   smooth      PW
     Sum       30853   30853   7713              4070731  4070731  508683
 


     bravais-lattice index     =            0
     lattice parameter (alat)  =      40.1708  a.u.
     unit-cell volume          =   64823.4677 (a.u.)^3
     number of atoms/cell      =            5
     number of atomic types    =            2
     number of electrons       =         8.00
     number of Kohn-Sham states=            8
     kinetic-energy cutoff     =      60.0000  Ry
     charge density cutoff     =     240.0000  Ry
     scf convergence threshold =      1.0E-06
     mixing beta               =       0.7000
     number of iterations used =            8  local-TF  mixing
     Exchange-correlation= BEEF-VDW
                           (   1   4  43  14   2   0   0)

     celldm(1)=  40.170825  celldm(2)=   0.000000  celldm(3)=   0.000000
     celldm(4)=   0.000000  celldm(5)=   0.000000  celldm(6)=   0.000000

     crystal axes: (cart. coord. in units of alat)
               a(1) = (   1.000000   0.000000   0.000000 )  
               a(2) = (   0.000000   1.000000   0.000000 )  
               a(3) = (   0.000000   0.000000   1.000000 )  

     reciprocal axes: (cart. coord. in units 2 pi/alat)
               b(1) = (  1.000000  0.000000  0.000000 )  
               b(2) = (  0.000000  1.000000  0.000000 )  
               b(3) = (  0.000000  0.000000  1.000000 )  


     PseudoPot. # 1 for C  read from file:
     /users/bkreitz1/quantum-espresso/potentials/C.pbe-n-kjpaw_psl.1.0.0.UPF
     MD5 check sum: a169b0ebad56f5ec0d79c4633f80bf22
     Pseudo is Projector augmented-wave + core cor, Zval =  4.0
     Generated using 'atomic' code by A. Dal Corso  v.6.7MaX
     Shape of augmentation charge: PSQ
     Using radial grid of 1073 points,  4 beta functions with: 
                l(1) =   0
                l(2) =   0
                l(3) =   1
                l(4) =   1
     Q(r) pseudized with 0 coefficients 


     PseudoPot. # 2 for H  read from file:
     /users/bkreitz1/quantum-espresso/potentials/H.pbe-kjpaw_psl.1.0.0.UPF
     MD5 check sum: ae98473e6dc62675f0d0baffdab24f65
     Pseudo is Projector augmented-wave, Zval =  1.0
     Generated using 'atomic' code by A. Dal Corso  v.6.7MaX
     Shape of augmentation charge: PSQ
     Using radial grid of  929 points,  2 beta functions with: 
                l(1) =   0
                l(2) =   0
     Q(r) pseudized with 0 coefficients 


     atomic species   valence    mass     pseudopotential
        C              4.00    12.01100     C ( 1.00)
        H              1.00     1.00800     H ( 1.00)

     No symmetry found



   Cartesian axes

     site n.     atom                  positions (alat units)
         1           C   tau(   1) = (   0.5000001   0.5000000   0.5000000  )
         2           H   tau(   2) = (   0.5295775   0.5295775   0.5295775  )
         3           H   tau(   3) = (   0.4704225   0.4704225   0.5295775  )
         4           H   tau(   4) = (   0.5295775   0.4704225   0.4704225  )
         5           H   tau(   5) = (   0.4704225   0.5295775   0.4704225  )

     number of k points=     1  Gaussian smearing, width (Ry)=  0.0050
                       cart. coord. in units 2pi/alat
        k(    1) = (   0.0000000   0.0000000   0.0000000), wk =   2.0000000

     Dense  grid:  2035366 G-vectors     FFT dimensions: ( 200, 200, 200)

     Estimated max dynamical RAM per process >       3.14 GB

     Initial potential from superposition of free atoms

     starting charge    7.99992, renormalised to    8.00000

     negative rho (up, down):  5.143E-03 0.000E+00


     %%%%%%%%%%%%%%%%%%%%%%%%%%%%%%%%%%%%%%%%%%%%%%%%%%%%%%%%%%%%%%%%%%%%%%%%
     %                                                                      %
     % You are using vdW-DF, which was implemented by the Thonhauser group. %
     % Please cite the following two papers that made this development      %
     % possible and the two reviews that describe the various versions:     %
     %                                                                      %
     %   T. Thonhauser et al., PRL 115, 136402 (2015).                      %
     %   T. Thonhauser et al., PRB 76, 125112 (2007).                       %
     %   K. Berland et al., Rep. Prog. Phys. 78, 066501 (2015).             %
     %   D.C. Langreth et al., J. Phys.: Condens. Matter 21, 084203 (2009). %
     %                                                                      %
     %                                                                      %
     % If you are calculating the stress with vdW-DF, please also cite:     %
     %                                                                      %
     %   R. Sabatini et al., J. Phys.: Condens. Matter 24, 424209 (2012).   %
     %                                                                      %
     %%%%%%%%%%%%%%%%%%%%%%%%%%%%%%%%%%%%%%%%%%%%%%%%%%%%%%%%%%%%%%%%%%%%%%%%


     Starting wfcs are    8 randomized atomic wfcs
     Checking if some PAW data can be deallocated... 

     total cpu time spent up to now is       62.6 secs

     Self-consistent Calculation

     iteration #  1     ecut=    60.00 Ry     beta= 0.70
     Davidson diagonalization with overlap
     ethr =  1.00E-02,  avg # of iterations =  5.0

     negative rho (up, down):  3.645E-03 0.000E+00

     total cpu time spent up to now is       92.0 secs

     total energy              =     -23.95078941 Ry
     estimated scf accuracy    <       0.69115658 Ry

     iteration #  2     ecut=    60.00 Ry     beta= 0.70
     Davidson diagonalization with overlap
     ethr =  8.64E-03,  avg # of iterations =  1.0

     negative rho (up, down):  1.785E-03 0.000E+00

     total cpu time spent up to now is      119.6 secs

     total energy              =     -23.92713763 Ry
     estimated scf accuracy    <       0.13956313 Ry

     iteration #  3     ecut=    60.00 Ry     beta= 0.70
     Davidson diagonalization with overlap
     ethr =  1.74E-03,  avg # of iterations =  2.0

     negative rho (up, down):  4.960E-04 0.000E+00

     total cpu time spent up to now is      147.9 secs

     total energy              =     -23.92756439 Ry
     estimated scf accuracy    <       0.02601754 Ry

     iteration #  4     ecut=    60.00 Ry     beta= 0.70
     Davidson diagonalization with overlap
     ethr =  3.25E-04,  avg # of iterations =  7.0

     negative rho (up, down):  8.504E-02 0.000E+00

     total cpu time spent up to now is      222.4 secs

     total energy              =     -23.92561430 Ry
     estimated scf accuracy    <       0.00984666 Ry

     iteration #  5     ecut=    60.00 Ry     beta= 0.70
     Davidson diagonalization with overlap
     ethr =  1.23E-04,  avg # of iterations =  5.0

     negative rho (up, down):  8.641E-02 0.000E+00

     total cpu time spent up to now is      252.7 secs

     total energy              =     -23.92641827 Ry
     estimated scf accuracy    <       0.00280685 Ry

     iteration #  6     ecut=    60.00 Ry     beta= 0.70
     Davidson diagonalization with overlap
     ethr =  3.51E-05,  avg # of iterations =  3.0

     negative rho (up, down):  8.454E-02 0.000E+00

     total cpu time spent up to now is      282.2 secs

     total energy              =     -23.92590144 Ry
     estimated scf accuracy    <       0.00117689 Ry

     iteration #  7     ecut=    60.00 Ry     beta= 0.70
     Davidson diagonalization with overlap
     ethr =  1.47E-05,  avg # of iterations =  9.0

     negative rho (up, down):  6.569E-02 0.000E+00

     total cpu time spent up to now is      313.8 secs

     total energy              =     -23.92541528 Ry
     estimated scf accuracy    <       0.00031749 Ry

     iteration #  8     ecut=    60.00 Ry     beta= 0.70
     Davidson diagonalization with overlap
     ethr =  3.97E-06,  avg # of iterations = 11.0

     negative rho (up, down):  3.825E-02 0.000E+00

     total cpu time spent up to now is      346.5 secs

     total energy              =     -23.92500084 Ry
     estimated scf accuracy    <       0.00014625 Ry

     iteration #  9     ecut=    60.00 Ry     beta= 0.70
     Davidson diagonalization with overlap
     c_bands:  3 eigenvalues not converged
     ethr =  1.83E-06,  avg # of iterations = 20.0

     negative rho (up, down):  2.130E-02 0.000E+00

     total cpu time spent up to now is      382.0 secs

     total energy              =     -23.92492689 Ry
     estimated scf accuracy    <       0.00005412 Ry

     iteration # 10     ecut=    60.00 Ry     beta= 0.70
     Davidson diagonalization with overlap
     ethr =  6.76E-07,  avg # of iterations =  7.0

     negative rho (up, down):  1.809E-02 0.000E+00

     total cpu time spent up to now is      412.5 secs

     total energy              =     -23.92494022 Ry
     estimated scf accuracy    <       0.00007571 Ry

     iteration # 11     ecut=    60.00 Ry     beta= 0.70
     Davidson diagonalization with overlap
     ethr =  6.76E-07,  avg # of iterations =  2.0

     negative rho (up, down):  1.203E-02 0.000E+00

     total cpu time spent up to now is      440.0 secs

     total energy              =     -23.92494748 Ry
     estimated scf accuracy    <       0.00001599 Ry

     iteration # 12     ecut=    60.00 Ry     beta= 0.70
     Davidson diagonalization with overlap
     ethr =  2.00E-07,  avg # of iterations =  2.0

     negative rho (up, down):  1.065E-02 0.000E+00

     total cpu time spent up to now is      467.9 secs

     total energy              =     -23.92495213 Ry
     estimated scf accuracy    <       0.00000971 Ry

     iteration # 13     ecut=    60.00 Ry     beta= 0.70
     Davidson diagonalization with overlap
     ethr =  1.21E-07,  avg # of iterations =  2.0

     negative rho (up, down):  9.830E-03 0.000E+00

     total cpu time spent up to now is      488.0 secs

     End of self-consistent calculation

          k = 0.0000 0.0000 0.0000 (254342 PWs)   bands (ev):

   -17.4440  -9.7798  -9.7798  -9.7798  -0.8565  -0.1014  -0.1013  -0.1013

     the Fermi energy is    -8.7726 ev

!    total energy              =     -23.92495424 Ry

     total all-electron energy =       -81.689034 Ry
     estimated scf accuracy    <       0.00000035 Ry
     smearing contrib. (-TS)   =      -0.00000000 Ry
     internal energy E=F+TS    =     -23.92495424 Ry

     The total energy is F=E-TS. E is the sum of the following terms:
     one-electron contribution =     -50.14179160 Ry
     hartree contribution      =      26.02699355 Ry
     xc contribution           =      -7.87596450 Ry
     ewald contribution        =      14.60870041 Ry
     one-center paw contrib.   =      -6.54289209 Ry

     convergence has been achieved in  13 iterations

     negative rho (up, down):  9.830E-03 0.000E+00

     Forces acting on atoms (cartesian axes, Ry/au):

     atom    1 type  1   force =    -0.00000191   -0.00000169   -0.00000281
     atom    2 type  2   force =    -0.00021732   -0.00021746   -0.00021721
     atom    3 type  2   force =     0.00021893    0.00021900   -0.00021855
     atom    4 type  2   force =    -0.00021865    0.00021893    0.00021923
     atom    5 type  2   force =     0.00021895   -0.00021878    0.00021934

     Total force =     0.000757     Total SCF correction =     0.000031

     negative rho (up, down):  9.830E-03 0.000E+00

     negative rho (up, down):  9.830E-03 0.000E+00

     negative rho (up, down):  9.830E-03 0.000E+00

     negative rho (up, down):  9.830E-03 0.000E+00

     negative rho (up, down):  9.830E-03 0.000E+00

     negative rho (up, down):  9.830E-03 0.000E+00

     negative rho (up, down):  9.830E-03 0.000E+00

     negative rho (up, down):  9.830E-03 0.000E+00

     negative rho (up, down):  9.830E-03 0.000E+00

     negative rho (up, down):  9.830E-03 0.000E+00

     negative rho (up, down):  9.830E-03 0.000E+00

     negative rho (up, down):  9.830E-03 0.000E+00

     negative rho (up, down):  9.830E-03 0.000E+00

     negative rho (up, down):  9.830E-03 0.000E+00

     negative rho (up, down):  9.830E-03 0.000E+00

     negative rho (up, down):  9.830E-03 0.000E+00

     negative rho (up, down):  9.830E-03 0.000E+00

     negative rho (up, down):  9.830E-03 0.000E+00

     negative rho (up, down):  9.830E-03 0.000E+00

     negative rho (up, down):  9.830E-03 0.000E+00

     negative rho (up, down):  9.830E-03 0.000E+00

     negative rho (up, down):  9.830E-03 0.000E+00

     negative rho (up, down):  9.830E-03 0.000E+00

     negative rho (up, down):  9.830E-03 0.000E+00

     negative rho (up, down):  9.830E-03 0.000E+00

     negative rho (up, down):  9.830E-03 0.000E+00

     negative rho (up, down):  9.830E-03 0.000E+00

     negative rho (up, down):  9.830E-03 0.000E+00

     negative rho (up, down):  9.830E-03 0.000E+00

     negative rho (up, down):  9.830E-03 0.000E+00

     negative rho (up, down):  9.830E-03 0.000E+00

     negative rho (up, down):  9.830E-03 0.000E+00

     negative rho (up, down):  9.830E-03 0.000E+00

     negative rho (up, down):  9.830E-03 0.000E+00
 BEEFens 2000 ensemble energies
             -0.610787546391270E+00
             -0.964770680731730E-02
             -0.115508137575683E+00
              0.409277303630963E+00
             -0.198409988129751E+00
             -0.133191094985825E+00
             -0.451057825809721E+00
             -0.916390345537210E+00
             -0.287995245227994E+00
             -0.321986402591088E+00
             -0.324939422694111E+00
              0.526911641956943E-01
              0.288405287567650E-01
             -0.523788176967197E-01
              0.348463865387123E-01
              0.435253308665968E+00
             -0.179385583971957E+00
             -0.626744075221577E-01
              0.244272631062744E+00
             -0.101730488534943E+01
              0.510671689863038E+00
             -0.167636675712582E+00
             -0.631421775967408E-01
             -0.778830652478515E-01
              0.469034999387983E-01
             -0.344938683442728E-01
              0.820917951478198E+00
             -0.221024819311162E+00
             -0.601355643229029E-01
             -0.522386335965117E+00
              0.613566371884492E+00
             -0.117340559260783E-01
             -0.391116677780926E+00
              0.141798186348434E+00
             -0.268474801604617E-01
              0.294175882959771E+00
              0.242015735313590E-01
             -0.227032797411877E-01
              0.385854049786820E+00
             -0.909286395360628E+00
              0.515983667091064E+00
              0.102968798545568E+00
             -0.132246539005202E+00
             -0.252422297527580E+00
              0.118795554433393E+00
             -0.167666372758890E+00
              0.486851611485779E+00
              0.319398334868387E+00
             -0.159334972146841E+00
             -0.300893159055662E+00
             -0.295195986457928E+00
             -0.356420244416420E+00
              0.246457956987758E+00
             -0.482908018390549E+00
              0.153339518739444E+00
              0.559535207142529E+00
              0.708802934156262E+00
              0.292825313758871E+00
              0.147981037552930E+00
              0.312237289142523E+00
              0.856115838093022E+00
              0.141213742092142E+00
             -0.508253159007677E+00
             -0.811587277391586E-01
             -0.291600839060969E+00
              0.574014917100467E+00
             -0.653748576422182E+00
             -0.550619448904265E+00
             -0.339347533606127E+00
             -0.201448567537063E+00
             -0.334362927757472E+00
              0.261392931175689E+00
              0.141269334428014E+00
              0.148695358295570E+00
             -0.367410957179275E+00
             -0.328590752304537E+00
             -0.547047253114670E+00
              0.281738287391692E+00
             -0.324538872720372E+00
              0.319304562061705E+00
             -0.875723168118377E-01
             -0.262386059523525E+00
             -0.440194171752873E+00
             -0.131942389021361E+00
             -0.167172899241052E+00
             -0.122898525239224E+00
              0.362834761978792E+00
              0.741729140859004E+00
             -0.420781669676380E+00
             -0.722829127935722E+00
             -0.164779788367022E+00
              0.999426787843268E+00
             -0.524830617064029E+00
              0.283575834021527E+00
             -0.990296772516501E-01
             -0.538831062050211E+00
              0.259169526785022E+00
              0.254243796507285E+00
             -0.136502640483861E+00
              0.253482089373058E+00
             -0.230803379913953E+00
             -0.584983205702454E+00
              0.963131881583157E+00
              0.411182844767314E+00
              0.172158110220618E+00
              0.102620215871938E+00
              0.205637394154027E+00
              0.747682108372504E+00
             -0.252528989773331E+00
              0.190745399136611E-01
             -0.127575645526815E+01
              0.161569526191724E+00
             -0.609536342795414E+00
              0.112680573396875E+00
              0.198278357572788E+00
             -0.343009811448015E+00
             -0.459473214731077E+00
              0.178377247910468E-01
             -0.296375802520677E+00
              0.426081071948803E+00
             -0.401871698147096E+00
             -0.969275154814508E-01
             -0.361067073373528E+00
             -0.200030908563327E-01
              0.614635200232685E-01
              0.231161248112055E+00
              0.200256568161095E-02
             -0.561878190459444E-01
              0.633945565461454E+00
              0.853422559265589E+00
              0.466320606042255E+00
              0.567279447662139E+00
             -0.127090939121322E+00
              0.576891558872945E-01
              0.461730325565478E+00
              0.812155935998136E-01
             -0.706407223826389E+00
             -0.434964198394001E+00
             -0.456803375686974E+00
             -0.274844411394632E+00
              0.236256215506137E+00
             -0.113052036584355E+01
             -0.102635865292850E+00
              0.431689003439289E+00
             -0.386292882245896E+00
             -0.266006365951328E+00
              0.543648870200920E+00
              0.464481806154860E+00
             -0.255390377176805E+00
              0.342026271681580E+00
             -0.240982407039066E+00
              0.358371774298816E+00
              0.661328006618005E-01
              0.817272093814716E-01
             -0.749131322675261E+00
             -0.436377646722960E+00
             -0.877309868365668E-01
             -0.557451754938097E-01
             -0.394054812354862E+00
              0.104543532431425E+01
             -0.763276676130475E-01
             -0.241826463149942E+00
              0.357319625751113E+00
             -0.397772964270273E+00
             -0.365004645491272E+00
              0.303853539475367E+00
              0.114498046814309E+00
              0.904524925427950E-01
              0.161881479262823E+00
             -0.998405344530613E-01
              0.678112559523285E-01
              0.530017055320100E+00
             -0.236886951320512E+00
              0.207551481338839E+00
              0.818093070566996E+00
              0.291561824533196E+00
             -0.166091680122138E-01
             -0.196522118836495E+00
              0.142908170337534E+01
             -0.254881291592605E+00
              0.381990339764773E+00
              0.306240273486035E+00
              0.233648552394485E+00
              0.864032335375621E+00
              0.415515573766223E+00
             -0.418896170363970E-01
              0.236695275864139E+00
              0.499474514029218E+00
              0.345356869590363E+00
             -0.574271080761420E+00
              0.881581044039310E+00
             -0.808521491190726E+00
             -0.825148976615191E-01
              0.509375347934952E+00
              0.182212917428068E+00
              0.452039575259384E-01
              0.235002186244360E+00
              0.132169656067011E+00
              0.283584610097475E+00
             -0.568704542317020E+00
              0.264962669001259E-01
             -0.207665388263854E+00
             -0.299331027990184E-01
             -0.280298051417596E-01
             -0.139581865034287E+00
             -0.637586169868698E-01
              0.774530719268415E+00
             -0.319782979913250E-01
             -0.269845802095241E+00
             -0.104347916731897E-01
              0.138871583518692E+00
             -0.602560122686751E+00
             -0.542011002345871E+00
             -0.300830962352241E+00
             -0.586990239878939E+00
             -0.179011099132070E+00
             -0.369682932807225E+00
              0.156187378815289E+00
              0.231405778189460E-01
             -0.123837070271446E+00
             -0.717626832968761E-01
              0.450102561286927E-01
             -0.113969811035676E+00
              0.601285924877904E+00
             -0.826295132301920E+00
             -0.111162792848641E+00
             -0.118772376418808E+00
              0.141579035125227E+00
              0.218884947757873E+00
             -0.484551057651151E+00
             -0.966179418603561E-01
              0.421351679266475E+00
             -0.182272257400005E+00
              0.124193565935872E+00
              0.305660994077453E+00
              0.372847891149775E-03
              0.106655868577370E+01
             -0.712257777840311E-01
             -0.329827533546162E+00
             -0.225530761540509E-01
             -0.283512862627160E+00
              0.491402294055309E+00
             -0.485470736610593E+00
              0.151228417513265E+00
              0.411385184214376E+00
             -0.114710495892727E+00
              0.108918602623992E+01
              0.117057402103499E+01
             -0.677867116036454E+00
              0.534603778311023E+00
              0.235069327429321E+00
             -0.523420259480689E+00
              0.164187739653075E+00
              0.421315714616954E+00
              0.450577786084320E+00
              0.458295511825206E-01
              0.202076455888502E+00
              0.705352954843636E+00
             -0.216487095217337E+00
              0.720580459241577E-01
              0.586043735446180E+00
             -0.322433581521070E+00
             -0.250604224522430E+00
              0.574288865646370E+00
              0.298067796888085E+00
              0.704717978196887E+00
              0.339234607309559E+00
              0.147625014237653E+00
              0.214648241350528E+00
              0.409626039765274E+00
             -0.507041585096716E+00
              0.795771947934729E-01
              0.286028033771949E+00
              0.939111354280362E-01
              0.236899012446005E+00
             -0.594429435697455E+00
              0.295803814793271E+00
             -0.395145325258106E+00
             -0.293822865593161E+00
              0.193956860022856E+00
             -0.677553741309431E-01
              0.575962911429451E+00
             -0.106517506117500E+00
              0.266008415016221E+00
              0.270006600441523E+00
              0.710186146360612E+00
              0.480890891572770E+00
              0.488701540971729E+00
             -0.128169186816551E-02
             -0.118215522399863E+00
             -0.274000525193965E+00
              0.776992446305633E+00
              0.772991460357124E+00
              0.363426035140295E+00
             -0.276268935053463E+00
              0.454640774419881E+00
              0.218565070876071E-01
              0.144578379896420E+00
              0.662684583971216E+00
             -0.324579055207070E-01
             -0.100774532893217E+00
             -0.191773407306824E+00
             -0.599829841475528E+00
              0.898819006426146E+00
              0.493365688450487E+00
             -0.623702721601495E+00
             -0.212063195454103E+00
              0.211677499417832E+00
             -0.966987624544740E-01
              0.610768870149275E+00
              0.149687985958121E+00
              0.752885668838189E+00
              0.282662389473942E+00
             -0.193321255286172E+00
              0.143871002194877E+00
             -0.688198903996697E-01
             -0.211335603222072E+00
              0.155671859635428E+00
              0.144805135527406E+00
              0.846528410733267E+00
              0.694442446359123E+00
              0.547760142282832E+00
              0.623504073985380E+00
              0.722989521419477E-01
             -0.245046307426324E+00
              0.120594048519857E+00
             -0.301559341720222E+00
             -0.538874322041914E+00
             -0.511017018910109E+00
             -0.304894167352862E+00
             -0.100858938523637E+01
             -0.364203343030504E+00
             -0.806310245041860E+00
              0.190358162544741E+00
             -0.416989776230059E+00
              0.497421878232650E+00
             -0.922727742678400E+00
             -0.275443677900789E+00
              0.330825556653599E+00
              0.199039677024399E+00
             -0.850633242168167E+00
              0.468723382994478E+00
             -0.274559686325345E+00
              0.516184595962090E+00
             -0.245377525877476E+00
             -0.716523215486703E+00
              0.166549496069768E+00
             -0.601035906510536E+00
             -0.516762461486420E-02
             -0.239545884961986E-01
              0.374578367670435E+00
              0.117083477774042E+01
             -0.393234254877090E+00
             -0.350150293410719E+00
             -0.817933790157284E-01
             -0.551593771934518E-01
             -0.739235158220263E+00
             -0.529480190253367E+00
              0.467620902110237E+00
             -0.147562449441826E+00
              0.223424716268600E+00
             -0.451705828664597E+00
             -0.143544701154581E+00
             -0.390699116684890E+00
              0.437866762617274E+00
              0.107436810208383E+00
             -0.239075775823479E+00
             -0.176339967676475E+00
              0.132650238948892E+00
             -0.635216270260806E-01
              0.350592450218655E+00
             -0.249180645741952E+00
              0.122378859778351E+00
              0.321908599207624E+00
              0.100480359330295E+00
             -0.239475287174125E+00
              0.144150935606036E+01
              0.571132661342908E+00
              0.103607300720902E+00
              0.473397659416861E-01
             -0.561222254306574E+00
              0.311978671590731E+00
             -0.726071717167602E+00
             -0.334575666567072E+00
             -0.574170025585893E+00
             -0.172468262098476E+00
              0.565846264638540E+00
             -0.543273707206434E+00
              0.262311389940086E+00
             -0.531799077440729E-01
              0.415031514208430E-02
             -0.278980081608488E+00
             -0.379264507627334E+00
             -0.902509040020130E-01
             -0.279317802871937E+00
             -0.199573947656629E+00
             -0.363163277390603E+00
             -0.337901248538653E-01
             -0.284012700871803E+00
             -0.441189785303947E+00
              0.193464352390925E+00
             -0.915940437612481E-01
              0.228820270653480E+00
              0.782081350619128E-01
             -0.706117763841008E+00
             -0.460915028311989E+00
             -0.496579359139111E+00
              0.277861725722357E+00
             -0.742406697500306E-01
             -0.557460623171765E+00
              0.532444609587632E+00
             -0.404439537777043E+00
              0.556883877555980E+00
             -0.291183905954486E+00
             -0.449034095488686E+00
              0.221557208925214E+00
             -0.680321214153999E+00
             -0.281648613480722E+00
              0.541823939631169E+00
              0.206895264171122E+00
             -0.411696148789281E+00
              0.531652995310400E+00
             -0.146991585539396E+00
             -0.341095360366701E+00
             -0.274225271427154E+00
             -0.499564458519027E+00
              0.249836023784143E+00
             -0.814868382915482E+00
             -0.697805118995197E+00
             -0.625180530583793E-01
             -0.268849696545370E+00
             -0.580498221574776E+00
              0.715848350027191E+00
              0.129550212058934E+01
             -0.174908141078037E+00
             -0.361023961094524E-01
             -0.560632669195521E+00
              0.618899805101377E+00
              0.205093002854761E+00
             -0.192771116697454E+00
             -0.337562455290851E+00
              0.120588606824883E+00
             -0.545830741457540E+00
             -0.853809568818802E-01
             -0.788998973034982E+00
              0.300762410126630E+00
              0.107385054947395E+00
             -0.556868125742751E-01
             -0.128487214245586E+00
             -0.403626523197117E+00
             -0.140906694280116E+00
              0.129925948622532E+01
             -0.137187890115682E+00
             -0.463045286325146E+00
             -0.648284171849212E+00
              0.136040240867846E+00
             -0.364301055324249E+00
              0.903144467461670E-01
              0.314342364035361E+00
              0.503817325110119E-01
              0.356857234873922E+00
              0.189071518316825E+00
              0.553831561943954E+00
              0.217366328339460E+00
             -0.347243857062453E+00
              0.527109721723915E+00
              0.320713959989014E+00
              0.117690593981391E+00
              0.337499431656630E+00
             -0.306152923783364E+00
              0.659360612655193E+00
              0.254014414621338E+00
             -0.328248387947174E+00
             -0.600564064351712E-01
             -0.150342135581028E+00
              0.128792590505949E+00
             -0.226984325720425E+00
             -0.130072859522561E+00
             -0.117023170026852E+00
              0.749309909357229E+00
              0.551146398942872E+00
             -0.583651272127581E+00
             -0.836366155622876E-01
             -0.455798095354241E+00
             -0.109097794170048E+00
             -0.201795298498625E+00
              0.105742886114621E+00
             -0.274150277018920E-01
             -0.272742980062883E+00
              0.161008616295377E+00
             -0.889178108884064E-01
             -0.601612023670182E-01
              0.809457653685520E+00
              0.131617320985961E+00
             -0.793445588622714E+00
             -0.359553320359209E+00
              0.904961191801442E+00
              0.209413395036265E+00
             -0.797083882188216E-01
              0.102987190049909E+01
             -0.144355945012497E+00
             -0.657801417550918E-01
             -0.133622355948509E+00
              0.149400999324198E+00
              0.325375420795312E+00
              0.273138512576913E-01
              0.268679885428879E+00
             -0.973822049541744E-01
             -0.394830354580734E+00
             -0.363906825788280E+00
             -0.448997714857072E+00
              0.384409535577873E+00
              0.141298332461264E+00
              0.354131267820459E+00
              0.159292792363208E+00
              0.845009958563440E+00
              0.185837528320471E+00
             -0.712791879286947E+00
             -0.305698109389150E+00
              0.123881555916532E-01
             -0.260090685243287E+00
              0.597441017948047E+00
             -0.140322070402219E+00
              0.145986055586760E+00
              0.520533536161764E+00
             -0.766791582097444E+00
              0.137186659452650E+01
              0.186519068252595E+00
              0.228423029656082E+00
              0.362880625493604E+00
              0.183626804905250E-01
             -0.252604414926410E-01
              0.287989009622695E+00
             -0.331040361954924E+00
              0.820222546646716E+00
              0.718634932760575E+00
             -0.353231618663381E+00
              0.165650851415880E+00
              0.672067158468628E+00
             -0.197498215300800E+00
              0.206962611363468E+00
              0.286415127303923E+00
              0.385233477103686E+00
             -0.681109941699542E+00
             -0.413837041537750E-01
             -0.222819555472041E+00
             -0.643793813708466E-01
             -0.783731586740474E-01
              0.877749676262898E-01
             -0.119593309678947E+00
             -0.283407205895703E+00
              0.172275198710929E+00
              0.527787306614869E-01
              0.496981666033101E+00
             -0.440363598841780E+00
              0.439884275196141E+00
              0.492077177174401E+00
             -0.611232440492202E-01
              0.664262976351692E+00
             -0.626581451514667E+00
             -0.961738479760107E+00
             -0.767307727226790E-01
             -0.529422214455906E-01
              0.102630378369470E-01
              0.728775711767837E+00
             -0.239975054717412E-02
              0.401338489998675E+00
              0.574689224191578E+00
              0.371592473504797E+00
             -0.455632315908368E-01
              0.546391170100499E+00
             -0.159101156728357E+00
             -0.371436817242754E+00
             -0.321719522054400E+00
              0.958940117366134E-01
              0.316236520568956E+00
             -0.286405467377169E-01
              0.307282088000979E+00
              0.771090191450097E-02
              0.500149662060623E+00
              0.138756668652993E+00
              0.731339970330978E-01
              0.708066641864757E-02
              0.263291970461016E+00
              0.384233188905238E+00
              0.132884137238910E+00
             -0.331519470927863E-01
             -0.506642874999062E+00
              0.276113314933254E+00
              0.194717304438781E+00
              0.303170996095879E+00
              0.275560950811535E+00
              0.340423592337367E+00
             -0.816907807754559E-01
              0.330198507668196E+00
             -0.299610433029787E+00
             -0.213741271199366E-01
             -0.492549749651760E+00
             -0.327306659738448E+00
              0.408657650051787E+00
             -0.826396596873072E+00
              0.217051529061895E+00
              0.131374930320998E+00
              0.828878621275313E+00
             -0.991969944149482E-01
              0.318655804209099E+00
             -0.116348529810611E+00
             -0.461029832979638E+00
             -0.609576715328024E+00
             -0.157409667947211E+00
             -0.864073949603704E+00
              0.724275094434788E-01
             -0.202064882367076E+00
              0.312357133800363E+00
              0.249411611956966E+00
             -0.273105141140994E+00
             -0.295768060994074E+00
              0.408273412402136E+00
             -0.529606067316360E+00
             -0.137536409077954E+00
             -0.140876781722276E+00
              0.249078787452322E+00
              0.576819902891295E-01
              0.351158257878748E-01
             -0.125916751467809E+00
              0.498185990902507E+00
             -0.587542581559950E+00
              0.634148690673104E-01
              0.567299849714319E+00
             -0.336061717516312E+00
              0.401118538263068E-01
              0.129134024650552E-01
             -0.604842512773471E+00
             -0.346164942114090E+00
             -0.491955473094247E-02
              0.302635560137545E+00
              0.329924457563764E+00
              0.540528800198836E-01
             -0.111894401532230E+00
              0.144086537492394E+00
             -0.367043396133775E+00
             -0.493998148189094E-01
             -0.502396104921440E+00
             -0.255041547978436E+00
              0.473407896784401E+00
             -0.289432335587874E+00
              0.665222414648897E+00
             -0.227497640490983E+00
              0.300946015916733E+00
              0.243510395604411E+00
             -0.555648635654013E+00
             -0.231029406741794E+00
              0.924610159791577E-01
             -0.396583578408682E+00
             -0.396004548311560E+00
             -0.837307179601021E+00
             -0.520311639546178E+00
             -0.454536400418876E+00
             -0.421475809255281E+00
             -0.243209189618443E-02
              0.247488170606353E+00
              0.131370370244698E+00
              0.266590598057600E+00
             -0.554329894701498E+00
              0.119257993195369E+00
              0.296188671469285E+00
             -0.645895874723792E+00
             -0.524810245926731E+00
             -0.370158424025472E+00
             -0.322626640943501E+00
              0.122813281072838E+00
             -0.242489976373053E-01
             -0.371619375549147E+00
              0.252678305780595E+00
             -0.216942830546789E+00
              0.498804419617978E+00
             -0.819770290439685E+00
              0.604981637337457E+00
             -0.120856727676096E+00
             -0.434126696733645E+00
             -0.251124071747097E+00
             -0.227840832471460E-01
              0.454091598501838E+00
             -0.643489590013999E+00
             -0.114266402598246E+00
             -0.151825547951419E+00
              0.378749163466794E+00
              0.747180904201794E+00
             -0.954052573817876E+00
              0.854523584891431E+00
              0.342151898439841E+00
             -0.713754957340295E+00
             -0.290244835599689E+00
              0.742878175748101E+00
              0.532696552940092E+00
             -0.206633245114126E+00
             -0.696846550814323E-01
              0.180456195999267E+00
              0.733374021044330E+00
             -0.563840764808941E+00
              0.118566894691837E+00
             -0.659581435015392E-01
              0.245892217610431E+00
             -0.655223043000263E+00
             -0.159008306863931E-01
             -0.241411670810379E+00
              0.450814821139924E+00
              0.347403433570107E+00
             -0.849451766930163E+00
             -0.441592152643738E+00
             -0.193846031312752E+00
             -0.412007416487660E+00
             -0.111265133259637E+00
             -0.153327721453413E+00
              0.438166600275491E+00
              0.399313057970296E+00
             -0.943090702608584E-02
             -0.403448073144718E+00
             -0.823414518977510E+00
              0.488495438976365E+00
             -0.422644338218811E+00
             -0.353945005787231E+00
              0.770154014588712E-01
             -0.353951428413856E+00
             -0.377566593100798E+00
             -0.303431449394912E+00
             -0.495188209466654E+00
             -0.209143556968559E+00
             -0.450888547386200E+00
              0.509274763465250E+00
              0.537718330324865E+00
             -0.109825279766206E+00
             -0.188598152903062E+00
              0.279286070171629E-01
              0.387183548957976E+00
             -0.788122689644091E+00
             -0.218978128862561E+00
              0.473718163708105E+00
              0.682059788348131E+00
             -0.875969305068858E-01
              0.871219846442113E-01
              0.491591031160072E+00
              0.146595219057467E+00
              0.332584217975160E-01
             -0.351098038879306E+00
              0.127819946689012E+00
             -0.295593932719237E+00
             -0.659941274248736E-01
             -0.197908304738353E+00
             -0.128435690438567E+00
              0.235761104415212E+00
              0.750008982715857E+00
             -0.822427449698813E-01
              0.132605278152498E-01
             -0.860733162269836E+00
             -0.170292593386239E+00
             -0.326890360005373E+00
             -0.205110578927443E-01
             -0.445520462438713E+00
              0.853658366084240E+00
              0.825262155630768E+00
              0.183712200218084E+00
             -0.236262520980143E+00
              0.177292971211426E+00
              0.191371626282359E+00
             -0.430929733066583E+00
             -0.982858167266096E-01
              0.191778253088327E+00
              0.107425569109519E+00
              0.463831748623745E+00
              0.354006881381370E+00
             -0.187251012217725E+00
              0.188474422120902E+00
             -0.920257029857083E+00
             -0.112633783114957E-01
              0.848736054293445E+00
              0.189597859569077E+00
             -0.264002896828543E-01
              0.244266236713936E+00
             -0.211795760437612E+00
              0.809718794193286E+00
             -0.204458479763867E+00
              0.721634323974911E+00
              0.359521521201932E+00
             -0.437246178758334E+00
              0.317320747375976E+00
             -0.254901944613548E+00
             -0.632402001418333E+00
             -0.766589243669786E-01
             -0.500143205592809E+00
             -0.493664255360719E+00
             -0.499022037888119E-02
              0.360188581782286E+00
             -0.143191030733165E+00
             -0.287697668809383E+00
              0.694802709950175E-01
             -0.605178353241368E+00
             -0.206293502320068E-01
             -0.830805210701945E+00
              0.485858214234327E+00
             -0.341248391692093E-01
             -0.454623872182411E+00
             -0.150172107338264E+00
              0.163883610957458E+00
             -0.364617612665280E+00
             -0.404109775120424E+00
              0.856638013098312E+00
             -0.267401010502825E+00
             -0.344756090693746E+00
              0.321780393403537E+00
             -0.223714292931839E+00
              0.537135561708007E+00
             -0.241411947830095E-01
              0.856460067005549E-02
              0.103515263587538E+01
             -0.718355820043404E-01
             -0.359341912666641E+00
             -0.448247338247606E+00
             -0.482220029671742E+00
             -0.356119650068120E+00
              0.263627478873221E+00
              0.307485174508582E+00
              0.272452487549347E+00
              0.689900011617985E+00
              0.523071508418991E-01
              0.224098069560725E+00
             -0.534168327961843E+00
              0.141956866436481E-01
             -0.145362863911355E+00
             -0.277844956575070E+00
             -0.680090505902440E-01
              0.303368886807138E+00
              0.360768505593879E+00
             -0.290228578863657E-01
              0.125103196524282E+00
              0.260615950066245E+00
              0.320675556776007E+00
             -0.211111985175662E+00
             -0.825976119245442E-01
             -0.147114641126223E-02
             -0.251603766621992E+00
             -0.281633925534930E-01
             -0.384983668482843E+00
              0.741273495599197E+00
              0.576760705020112E+00
             -0.195122796944533E+00
              0.167652439163481E+00
             -0.616483717888078E-01
             -0.306971277793422E+00
              0.350521032678921E+00
             -0.842759627962693E-01
              0.333318057806611E+00
             -0.436289600813575E+00
              0.165583152589256E+00
             -0.776521227754410E-01
             -0.497095315378704E+00
             -0.231068865355066E+00
              0.220763296455941E+00
             -0.935221383496614E+00
              0.345092573081224E+00
              0.430587636324126E+00
             -0.948122491028914E-01
             -0.709702434627268E-01
             -0.380999734836394E-01
              0.244495414300359E+00
             -0.327193945028427E+00
              0.290783087550550E+00
              0.298215485986127E+00
             -0.838353034839256E+00
             -0.341593153220530E+00
              0.229046587543156E+00
             -0.113819631796794E+00
              0.474405543157583E+00
             -0.579190691934373E+00
             -0.114423334340097E+00
             -0.366194799450183E+00
             -0.123255008782135E+01
              0.742472305428743E+00
             -0.554233853656000E+00
             -0.639190042405582E+00
              0.608211085615704E-01
              0.120645304365920E+01
              0.718823502392030E-01
             -0.320841667387698E+00
             -0.115948092511466E-01
             -0.252829132771726E-01
             -0.793504310382446E+00
             -0.502080538214358E+00
              0.812503379119824E+00
             -0.129229807809241E+00
             -0.331480622674481E+00
              0.457674428271393E+00
             -0.299862727674299E+00
              0.303538212002349E+00
              0.451991295652769E+00
             -0.480080501925273E+00
             -0.260820648610284E+00
             -0.284095887904772E+00
             -0.167969860944468E+00
             -0.189872852102883E+00
             -0.193340142210131E+00
              0.187566759856232E+00
             -0.335583274602140E+00
              0.262973949500035E+00
              0.509170509576649E+00
             -0.462985403356762E-01
             -0.197119982706422E+00
              0.149136053803813E+00
              0.508814346386197E+00
              0.514162166550476E+00
              0.111797169012195E+00
             -0.109753015191057E+00
             -0.113659574059393E+00
             -0.502968436933855E+00
              0.391719260215244E+00
             -0.232141033509003E+00
              0.217395030524396E+00
             -0.130277231500830E+00
              0.237060724860342E+00
              0.157469663284785E+00
             -0.768010754076065E+00
             -0.241580148258896E+00
             -0.736487204171272E+00
             -0.375951921174705E+00
              0.297103690101304E-01
             -0.183313513359260E+00
              0.332667887679019E+00
             -0.265985664179051E+00
              0.364030752152101E-01
              0.630975067634227E-01
              0.649075397449602E+00
              0.337431312198155E+00
             -0.306923984906887E+00
             -0.353102566746064E-01
              0.148897425105423E+00
              0.345717063458520E+00
             -0.654262940832062E-02
              0.542199044522955E+00
              0.263605166830612E+00
              0.840878659328433E+00
              0.362584191067088E-01
              0.583101700497938E+00
             -0.252790198680790E+00
             -0.365141923663848E+00
              0.179107230201212E-01
              0.954625691045665E-01
              0.200317371957044E+00
             -0.216284414991240E+00
             -0.994676454092511E-01
              0.219426309265637E+00
             -0.453094983648000E+00
             -0.568085003674391E+00
              0.738641746770076E+00
             -0.630719154861810E-01
             -0.342197378865983E+00
             -0.540248985541135E-01
             -0.131498822153578E+00
              0.423161765968104E+00
              0.343572241603956E+00
             -0.197689953761901E+00
              0.214549108734596E-02
             -0.238356558759715E+00
             -0.340610234813510E+00
             -0.207267986564320E+00
             -0.908138236463443E+00
              0.229692536341648E-01
             -0.603255334160291E+00
             -0.554819145694073E+00
             -0.348739694603083E+00
              0.215049976252245E+00
             -0.362451980490070E+00
              0.226125514692792E+00
             -0.617977316706300E+00
             -0.640200860156259E-03
             -0.389879422724454E+00
              0.732227272708834E-01
              0.706735370693015E-01
              0.349179985212914E+00
             -0.204111684078427E+00
             -0.179759873297225E+00
              0.305832537276280E+00
              0.566595649831713E+00
              0.300806228610362E+00
              0.106773768250899E+00
             -0.708953256171364E+00
             -0.157642406609163E+00
             -0.258189319362465E+00
             -0.579966577624301E+00
              0.415890375468440E+00
             -0.325217610456461E+00
             -0.717320700055248E-01
             -0.273673477130941E+00
             -0.926563603662848E+00
              0.528532246427669E+00
             -0.184922692545366E+00
              0.361557889620782E+00
             -0.696971152044102E+00
              0.617816027960859E+00
              0.554757469751901E-01
             -0.232369703798116E+00
              0.100042721490529E+00
             -0.182591123754232E+00
             -0.586537458806071E+00
              0.167487096276041E+00
              0.386438910216469E+00
             -0.174592740828441E-01
             -0.318087906565406E+00
             -0.155224762554718E+00
              0.204136512163075E+00
              0.352395930801480E+00
              0.575394608295278E+00
              0.215472664156684E+00
             -0.209960821117992E+00
              0.952130434346847E+00
              0.183016747323577E+00
              0.460387213535550E+00
             -0.156235029845918E+00
              0.271516030766413E+00
              0.232780757574948E+00
             -0.588016891356532E+00
             -0.208098441044440E+00
             -0.379010121283908E+00
             -0.404291949308029E+00
             -0.114718305655707E+00
             -0.689345065226297E-01
             -0.451640684693360E+00
             -0.104072810765638E+01
             -0.246760722687846E+00
              0.128107208599864E+00
              0.460007630795465E-01
              0.155191664462192E+00
              0.362187666978790E+00
              0.849111020455682E-01
              0.286481185484849E+00
             -0.408803409566685E+00
              0.404838528620863E+00
             -0.350093109298051E+00
             -0.621625113773181E+00
              0.178619480258800E+00
             -0.394981662863648E+00
             -0.373972093443741E+00
             -0.149700566689113E+01
             -0.667331763573671E-01
              0.798976401428483E+00
              0.375152108164128E+00
             -0.106207541938780E+00
             -0.887214334197512E-01
              0.429003998499898E+00
              0.590721727664729E+00
             -0.372476343711313E+00
             -0.110179869507349E+00
             -0.340990344742040E+00
             -0.312093005946907E+00
             -0.273316841475972E+00
              0.888547047039647E-01
              0.640103443689398E+00
             -0.613826445131571E+00
             -0.508739984988532E+00
              0.348048116413291E-01
             -0.140577868642625E+00
             -0.170341537805592E+00
             -0.828226224669345E+00
              0.596863837969832E+00
              0.185394883667526E+00
              0.806820905026415E-01
              0.484705100477095E+00
             -0.309806933964878E+00
              0.319057541484805E+00
              0.268059433705372E+00
              0.600194641011464E-02
             -0.815086334037455E-01
              0.768424975635548E-01
             -0.144567348285043E+00
              0.488643330157587E+00
             -0.364652792236066E+00
              0.436226960847753E+00
              0.874858115209998E-01
              0.168772144565377E+00
              0.185739848622587E+00
             -0.753283910331366E+00
              0.104678425086581E+00
             -0.630841306930214E+00
             -0.447666539533571E+00
             -0.440155818066137E+00
             -0.499570221685935E+00
              0.706814229955821E-02
              0.184109154869861E+00
              0.463390244699095E+00
              0.642753485292543E-01
              0.145069158417887E+00
             -0.646755485983451E+00
             -0.261288180714720E+00
              0.305573797790352E+00
             -0.410061965366699E-01
             -0.395309374447590E-01
             -0.913961261072975E-01
              0.327408607230802E+00
             -0.852859956902289E+00
              0.123821848785791E+00
              0.189460545927723E+00
              0.358733967715117E+00
              0.338037475509261E+00
             -0.527756863139253E+00
              0.161724516958748E+00
              0.699955972536845E-01
              0.695977174621709E-01
              0.568529775630093E-01
             -0.197825904810326E+00
             -0.416309489989873E+00
              0.163864853643759E+00
              0.544390379464288E+00
             -0.122418057916365E-01
              0.129836974083988E+00
              0.109987099772595E+00
             -0.299594874749606E+00
             -0.315220854379993E+00
             -0.115000447918039E+01
             -0.359077652508933E+00
             -0.566626976929093E+00
             -0.653376603506102E-01
             -0.645356846890265E+00
              0.710746821784723E+00
             -0.324382556374971E+00
             -0.518798376905850E+00
             -0.147726545141389E+01
              0.628482681385895E+00
              0.145300605834786E+00
              0.109195624355294E+00
             -0.570756726595525E+00
              0.390841097099637E-01
             -0.158893480983914E+00
             -0.287484460702031E+00
              0.636124143683620E-01
              0.307333064303923E+00
              0.454609490253973E-01
             -0.194691225004501E+00
              0.454370376409585E-01
              0.166695844297786E-01
              0.832706993049817E-01
             -0.641463009452298E+00
              0.694049931352225E+00
             -0.383379602780533E+00
             -0.247650136718631E+00
             -0.493948692142774E+00
             -0.104202185914852E+01
              0.304671513857607E-01
             -0.543415705728764E+00
             -0.167792429622284E+00
              0.288645880341423E+00
             -0.247925750901238E+00
             -0.117731683681754E+00
             -0.121864244710477E+00
             -0.182197933373819E+00
              0.292751910353728E-01
              0.489717810519053E+00
             -0.474715415721756E+00
              0.985855402606405E+00
             -0.248329219361798E+00
              0.301771705844184E+00
             -0.173724225155544E+00
              0.105550623306687E+00
             -0.110901681018985E+00
              0.411418976707560E+00
              0.582553537625550E+00
              0.166458882470528E+00
              0.403111066288942E+00
             -0.259489085403550E+00
             -0.730426158765612E-01
             -0.223977189212370E+00
              0.595499883638419E+00
              0.522295511293829E+00
              0.373527494079277E+00
             -0.117348010633458E+00
             -0.232452816136506E+00
              0.223661731003504E+00
             -0.279994034106544E+00
             -0.148642924075381E+00
             -0.507371408080367E-01
             -0.346822770321753E+00
              0.453080444023522E+00
             -0.113491714635473E+00
              0.327170964633873E+00
              0.214863677306614E+00
              0.134399562252526E+00
             -0.312149064267058E+00
              0.228928881096502E+00
             -0.119947677498589E+00
             -0.673560746502408E-01
             -0.472181389468007E-02
             -0.452760639516953E+00
              0.728212083364374E+00
             -0.240538266333249E+00
              0.951882634523660E-02
              0.233866524567315E+00
              0.204489431560222E+00
              0.732911322434170E+00
             -0.206140171312255E+00
              0.700368304330587E+00
              0.624095854313530E+00
             -0.877582005093693E+00
              0.552268090851153E-01
             -0.167472712303124E+00
              0.115969285542806E+00
              0.509398153492295E-01
              0.196519056782095E+00
              0.601876321536327E+00
              0.937878716619975E+00
             -0.683576293646640E+00
              0.716188331968271E+00
             -0.946035312301810E+00
             -0.821232888811940E+00
             -0.141699633291602E+00
              0.102149549652577E-01
              0.752831887829995E+00
              0.303613592906900E+00
             -0.118033134691867E+00
             -0.763499094715359E+00
              0.615559893435062E+00
             -0.383009834005719E+00
              0.120361774551210E-01
             -0.521264354268753E-01
              0.121751484322413E+01
             -0.197453021362417E+00
             -0.985308963846768E+00
              0.276511781752349E+00
             -0.150577756747810E+01
              0.123793786911351E+00
             -0.362739249330437E+00
             -0.165989182531189E+00
             -0.228884921305546E+00
             -0.553026742027976E+00
              0.331785018559924E+00
             -0.340764844374732E+00
             -0.122601877843655E+00
             -0.707887072925394E+00
             -0.283268442867217E-01
             -0.505776266680317E+00
             -0.730154988695709E+00
             -0.979273376489709E+00
              0.837324455492690E-01
             -0.354014917159579E+00
              0.102517701170535E+00
             -0.132014868658051E+00
             -0.792545911816061E+00
             -0.599818881011981E+00
             -0.546768765323973E+00
             -0.558164832316162E+00
              0.491512763371318E+00
              0.452783841770235E-01
             -0.459793786152159E+00
             -0.240461159835788E+00
             -0.272652546338007E+00
              0.397477711704427E+00
             -0.272375296193104E+00
             -0.317294591594335E-01
             -0.313642851718058E+00
             -0.370575625994290E+00
             -0.394939406512361E+00
              0.378231517988000E+00
             -0.110836258136626E+00
             -0.865163103489900E+00
              0.720468505309489E+00
              0.415425668631947E+00
              0.227738356029668E-01
             -0.772769353670572E+00
             -0.692297420994036E+00
              0.462848388785426E-01
              0.141249741695355E-01
             -0.326175865835142E+00
             -0.399465696353830E+00
              0.279671595966549E+00
             -0.370409195667083E-01
              0.257328356870265E+00
              0.448659591356585E+00
              0.331427691735648E+00
              0.216328150918876E+00
              0.194906342220146E+00
             -0.218316294925474E+00
             -0.147082642633802E+00
             -0.170124945533676E+00
             -0.361489475193162E+00
             -0.437683438828475E+00
             -0.553828338589488E+00
             -0.327801865668876E+00
             -0.117923331699301E+00
             -0.695412787770084E+00
             -0.161748817611394E+00
              0.349837757734542E+00
             -0.806790539019246E+00
              0.359254132610477E+00
              0.301791786182635E+00
             -0.676959772756105E+00
             -0.514773574882599E+00
             -0.226807943323323E+00
              0.970286221648733E-01
             -0.392691726926111E+00
              0.714507548917736E+00
              0.626915645929599E+00
             -0.731704529379492E+00
              0.375858608744138E+00
              0.339498348435500E+00
              0.108157887630979E+00
              0.162561684358479E+00
             -0.402586208081163E+00
             -0.149816766041685E+00
              0.595180134027515E-01
              0.195361157841418E+00
              0.379932135175424E+00
             -0.514387908345979E+00
             -0.117897320167675E+00
              0.146076976271801E+00
              0.120107224090528E+00
             -0.335931169474748E+00
              0.178091020808830E+00
             -0.230066357102285E+00
             -0.173385586742812E+00
             -0.131327521663116E-01
             -0.582455596138460E+00
             -0.167034032065494E-01
             -0.692396479013277E-01
             -0.140207956204168E+00
              0.165316157771981E+00
             -0.487739023462421E+00
              0.553342046138643E+00
             -0.202827565832268E+00
             -0.126121926050133E+01
             -0.806331673609845E+00
              0.321670100801856E+00
             -0.394460578085692E+00
             -0.200109438252555E+00
             -0.206573663128536E+00
             -0.183117936236356E+00
             -0.980308469953696E+00
              0.624591188367773E-03
             -0.581291629440766E+00
             -0.318363821080589E+00
              0.172122090123425E+00
              0.757879995934083E+00
              0.524247035568423E-01
              0.282412759284726E-01
              0.562037277698443E+00
             -0.557573357352716E+00
              0.251423595629672E+00
              0.465048439727918E-01
             -0.512741925751632E+00
             -0.306132937561786E+00
              0.174939834084755E+00
              0.313975627801255E-01
              0.171423764702034E+00
              0.124035408551738E+00
             -0.211188903049626E+00
             -0.319921205468992E+00
             -0.465148227275634E+00
              0.468337331969266E+00
             -0.644338764478405E+00
             -0.482208833316408E+00
              0.134589683023288E+00
             -0.782006830615429E+00
              0.229443523107784E+00
              0.555978892447871E+00
             -0.124786098676445E+00
              0.200455009568954E+00
             -0.333285298674348E+00
             -0.205977708900526E+00
              0.922759286206678E-01
              0.334902773336990E+00
             -0.333435109716506E+00
              0.199214182483769E+00
             -0.139971280475487E+00
              0.828747280692603E-01
              0.171781451458358E+00
              0.873324011143639E-01
             -0.128794167658602E+00
             -0.108418492712885E-01
              0.822365225355632E-01
              0.266789196768836E+00
             -0.658359862475486E+00
             -0.210025106794198E-01
              0.483212755584461E+00
             -0.814254118403837E+00
              0.311315556852521E+00
             -0.105517590778142E+01
             -0.111495674485333E+00
             -0.130233415573403E+00
             -0.327724554557101E-01
             -0.124279720945708E+00
             -0.262090411495616E+00
             -0.985829222134615E-01
              0.942556991783507E-01
             -0.246340680170309E+00
              0.103657490891385E+00
              0.862175743929216E+00
             -0.520046117605570E+00
             -0.232401944416945E+00
              0.400320108687479E+00
              0.192274291101209E+00
              0.407126615540102E+00
              0.192374649114160E+00
              0.144309748930951E+00
             -0.132133095429415E+00
             -0.460144520327272E+00
             -0.432390490988573E+00
             -0.339645904094923E+00
              0.629952561379201E-01
             -0.395047081964625E+00
             -0.103884854649735E+00
              0.518753850573226E-01
              0.225581272185783E+00
             -0.539875794211884E-01
              0.560174411929463E+00
             -0.629158888827499E+00
             -0.954516541827788E-02
             -0.746914604490284E-01
              0.297147570830261E+00
             -0.395292748236350E+00
             -0.259120733727297E+00
              0.101118222909671E+00
              0.420884710164468E+00
              0.711989244025459E+00
              0.280354128716068E+00
              0.440349294276967E+00
             -0.222240937268706E+00
              0.599398444444919E+00
              0.584728162679624E+00
             -0.558567149192513E-02
              0.262992638132425E+00
              0.346672671626582E+00
             -0.178928902808932E+00
              0.153275568186325E+00
              0.621181875077842E+00
             -0.197071159064141E+00
             -0.542065582681808E-01
             -0.589713715216195E+00
              0.194221101647122E+00
             -0.154476351773303E+00
              0.204899715823948E+00
              0.184433348148327E-02
             -0.363261016407422E+00
              0.435000594655325E+00
              0.360833151299039E+00
             -0.299792856126021E+00
              0.155722076848105E+00
             -0.566421008492221E+00
             -0.513556513704249E+00
              0.226375007276199E+00
             -0.633345190752015E+00
             -0.324910653921243E+00
             -0.120449319181226E-01
              0.817421815458322E+00
             -0.200184852214860E+00
             -0.115504553350737E+00
             -0.196625155057998E+00
              0.105150652100287E+01
              0.177249370659164E+00
             -0.393017187804177E+00
              0.670282532573689E+00
              0.586325869121836E+00
              0.310098485023715E+00
              0.759359663870862E+00
              0.819212761012287E+00
             -0.230934917730854E-01
             -0.265898406687303E+00
             -0.237389696701716E+00
              0.258172642882601E+00
              0.361423002207331E+00
             -0.740180479216810E-01
             -0.227922343698043E+00
             -0.535122521619184E+00
             -0.174387447040312E+00
             -0.434989158475632E+00
              0.314456258042635E+00
              0.172293793516534E+00
              0.560370267770891E+00
              0.140541437531917E+00
             -0.213164425380644E+00
             -0.756403853259571E-01
              0.370178819997146E+00
              0.955664690511302E-01
              0.596187937604122E+00
              0.520688170613413E+00
             -0.692739722319358E-01
             -0.850070513858031E-01
             -0.959180338672628E+00
              0.456334463411394E+00
             -0.904626855612989E-03
              0.558132232115161E+00
             -0.256385936108483E+00
             -0.628198432337310E+00
              0.172475473918016E+00
              0.680833763273334E+00
             -0.235689509341942E+00
              0.614348409433267E+00
             -0.672016875425552E+00
             -0.248021259289705E+00
             -0.813399905044659E+00
              0.136763879606396E+00
              0.377630990563560E-01
              0.874013476341327E-01
             -0.584302895200135E+00
              0.879255887141126E+00
              0.510470207503174E+00
              0.510779076256962E-01
             -0.522243151822594E+00
              0.196491899351498E+00
             -0.162489529100896E+00
             -0.146379681694045E+00
             -0.258838789657689E+00
              0.153816143558354E+00
             -0.173289755816465E+00
             -0.165311966469116E+00
              0.227111475657140E+00
              0.212594985232087E+00
             -0.848711794875476E+00
              0.183038289274127E+00
              0.615356557028400E+00
              0.396148749705374E+00
             -0.123319321461107E+00
             -0.259106680814447E-01
             -0.349367114016506E+00
              0.514919041920662E+00
              0.680176173883220E-01
             -0.301436556112042E-01
             -0.573288282602986E-01
              0.101147418171463E+01
             -0.768233456568348E-01
              0.195611681342258E+00
              0.702031615268700E+00
              0.895560807929125E+00
              0.548777431610384E+00
              0.363258467102670E+00
             -0.599730187202260E+00
             -0.438642797816074E+00
              0.337555883673197E+00
              0.595953167659728E-01
              0.287258444667051E+00
              0.105109497062380E+00
              0.624542885689980E+00
             -0.748046370638701E+00
             -0.455050929019810E+00
             -0.111975968621242E+00
             -0.814359787073807E+00
              0.174279702859869E+00
              0.438353892063638E+00
             -0.141257280050819E-01
             -0.189572894441115E+00
              0.193147844020296E+00
              0.125483703906852E+01
              0.306539990349719E+00
              0.162070708708810E+00
             -0.434108692488001E+00
             -0.533798315676984E+00
             -0.135021705860448E+00
              0.266586221929459E+00
             -0.541001737572540E-01
              0.263402594268052E+00
              0.338356167128151E+00
             -0.569782927137060E+00
              0.253710691197234E+00
              0.287332927424147E+00
              0.515858298736355E+00
             -0.101734687383161E+00
              0.492387756508532E-01
             -0.629150092506787E-01
             -0.407215349603320E+00
             -0.698486194304858E+00
              0.691355709909478E+00
             -0.929436079963841E-01
             -0.483287190901676E+00
              0.873393084582748E-01
             -0.297102839136260E+00
              0.793883697186940E+00
             -0.216507589502590E+00
             -0.361369495300202E+00
              0.367377824225163E+00
             -0.142969614714663E+00
              0.434108334570529E+00
              0.428985508539390E-01
              0.850361700119902E+00
              0.487128374407017E+00
              0.137121122565375E+00
             -0.371175594797844E+00
              0.266903246804667E+00
             -0.502347315496569E+00
             -0.301305955703779E-01
              0.614572644287404E+00
             -0.233884892009166E+00
             -0.397355634883340E+00
             -0.214340023675351E+00
              0.483475021384269E+00
              0.947021799093706E-01
             -0.755213417719774E+00
              0.327352965797864E+00
              0.500810651477335E-01
              0.112049522534368E+00
             -0.460077182949937E+00
              0.105244028134491E+00
              0.318290335725438E+00
              0.417333464882518E+00
              0.614938761270866E+00
              0.346010018775321E+00
              0.686521752479679E-01
             -0.528988970976618E+00
             -0.389969707039064E+00
             -0.584767157460836E+00
             -0.143708426393530E+00
              0.334033542828769E+00
             -0.172515437398657E-02
              0.493061451932334E+00
             -0.297407240608884E+00
              0.155846158429169E+00
             -0.240877124853980E+00
             -0.248032606364416E+00
              0.548642840902184E+00
              0.488138623134713E-01
              0.584499004725158E+00
              0.516362873348779E-01
              0.179040812088573E+00
             -0.142915957524398E+00
              0.549117257922392E+00
             -0.161221766414585E+00
              0.643770472393579E-02
             -0.733587940529915E+00
             -0.642347631295361E-01
              0.643106498353204E+00
              0.598697541778316E+00
              0.231425685203123E+00
             -0.133494231288564E+00
              0.586351008470689E-01
             -0.234583881580829E+00
             -0.198553487172282E+00
              0.839460051102295E+00
              0.854716033378402E-01
             -0.269948542719388E+00
             -0.983367871215780E+00
             -0.377715544153209E+00
             -0.358872916447610E+00
             -0.546546556726496E+00
             -0.568801611108879E+00
             -0.659875569320032E+00
             -0.419057647794501E+00
             -0.253744993859724E+00
             -0.439707895134926E+00
              0.411159742986699E+00
             -0.158147135531571E+00
             -0.762088403873956E+00
              0.394175934680781E+00
             -0.329140400097325E+00
             -0.728727119071185E+00
              0.946608311864632E+00
             -0.237693779397795E+00
              0.135155984045539E+00
              0.349581270852709E+00
              0.152403345539665E+00
              0.249000359515932E+00
              0.755291153917281E-02
              0.154557148470370E-01
             -0.127919281818448E+00
             -0.691970586028386E+00
              0.975719517980252E-01
             -0.110599718962693E+01
              0.692843471578910E+00
             -0.372622594656341E+00
             -0.182027667355397E+00
             -0.197329137503383E+00
              0.229172942640051E+00
             -0.153460386912280E+00
              0.257601979664492E+00
             -0.548155513027916E+00
              0.338140155179701E+00
              0.411168371738918E+00
              0.701566384808514E-01
              0.919285620852881E-01
              0.202078170865257E+00
              0.941266721243745E-01
              0.281960657606563E+00
             -0.277971776421451E-01
             -0.713810938354805E+00
              0.854405632779649E-01
             -0.341150056156606E+00
             -0.180226397520249E-01
              0.538897728018318E+00
             -0.750136171956225E+00
              0.310399858097137E-01
              0.395535563401395E-01
              0.940964276974574E-01
              0.277653832369430E+00
             -0.122212080962734E+00
              0.788355921854468E+00
              0.313134455532949E+00
             -0.122603687449107E+00
             -0.713862057837233E-01
              0.631862419995548E-01
              0.733256994965909E+00
             -0.447502063505398E+00
             -0.941449065705097E+00
              0.278229535217922E+00
             -0.746222490980872E-01
             -0.157362277534791E+00
              0.180927567253500E+00
              0.692567733320079E+00
              0.375448640539862E+00
             -0.161349669459684E+00
             -0.517498397035371E+00
             -0.132800136435896E+00
              0.252064002103878E+00
             -0.173704940285082E+00
             -0.722475828760979E+00
             -0.104638181781359E+00
             -0.921825841831234E+00
             -0.483490702176124E+00
              0.836052065483427E+00
             -0.491833075173466E+00
             -0.672437847827867E+00
             -0.504779989099087E+00
             -0.387774146673133E+00
              0.325611862788441E+00
              0.796901956405069E+00
             -0.109589041447009E+00
              0.251421945355725E+00
             -0.193622219060142E+00
             -0.633071740008984E+00
              0.504686310821185E+00
             -0.458460868958180E+00
              0.227359213640167E+00
              0.244762354933141E+00
             -0.157260086814073E+00
              0.327284632486864E+00
              0.344535456393713E+00
              0.115359245617707E+01
             -0.877555823548946E-01
             -0.557529304224545E+00
             -0.629648044701962E+00
             -0.180048261286343E+00
             -0.419030353731401E+00
              0.865921171225743E+00
             -0.439775256655804E+00
              0.885939778950463E-01
              0.129754163746858E-01
             -0.173396016999193E+00
             -0.813171255159935E+00
             -0.651781172348085E-01
              0.948974447781984E+00
              0.218644395342331E+00
              0.644348142435516E-01
             -0.560382670255821E+00
             -0.499981873704661E+00
             -0.176981706516605E+00
              0.426374774891570E+00
             -0.255658760083584E+00
              0.934463654705375E+00
             -0.458408853817816E+00
              0.173744345881974E+00
             -0.116909425711870E+00
             -0.573615913612527E+00
              0.679394790866423E-01
             -0.546160854569830E+00
             -0.694192486173806E+00
              0.102607548177526E+00
              0.108489703470469E-01
              0.450840777463389E+00
              0.258778602199663E+00
             -0.338586619896904E+00
              0.199167481238681E+00
             -0.841677174454483E+00
             -0.434424404699850E+00
              0.880812481758482E+00
              0.411621974349885E-02
             -0.396873281855576E-01
             -0.215254741127116E+00
              0.676740125848152E-02
             -0.121712802168677E+00
              0.882374716005144E+00
              0.391949955213426E+00
             -0.674881589947116E-01
              0.111901317095269E-01
             -0.352375482380214E+00
             -0.947782632921910E-01
             -0.572568855957124E+00
              0.497906545916671E+00
              0.641671054701235E-01
              0.700177078966036E-01
              0.182878480517684E+00
             -0.146703640134260E+00
             -0.222355489303120E+00
              0.100724581598260E+00
             -0.105023873259272E+01
             -0.902440332878429E-01
             -0.976620891937712E-01
             -0.546784794931615E-01
              0.441281165610071E+00
              0.609557316314691E+00
              0.173177813949912E+00
             -0.867516380610232E+00
              0.600927881345419E+00
             -0.234902182275346E+00
             -0.342428477764591E+00
             -0.813506185878237E+00
             -0.249677713671978E+00
              0.599804261779612E+00
              0.329158631397005E+00
              0.173313699848249E+00
              0.330653405074933E+00
             -0.518964211773174E+00
             -0.459827783434601E+00
              0.608554106635208E+00
              0.395272749666102E+00
              0.431590787297779E+00
              0.108986027840839E+00
              0.112089098913067E+00
              0.493067430802331E+00
              0.921658752590081E+00
             -0.162816456605979E+00
              0.376982670597003E+00
             -0.295169259004555E+00
             -0.408095419229220E+00
             -0.325864282370131E+00
             -0.318704036403908E+00
             -0.132159432257548E+00
             -0.440264432428610E+00
             -0.171242277416703E+00
             -0.119317345550876E+01
              0.300835834929366E+00
              0.285436481575871E+00
             -0.303275170810525E-01
             -0.330675463220278E+00
             -0.156063130101836E+00
             -0.536886363443891E+00
              0.492591365856856E-01
              0.738539476728234E+00
             -0.176642534446217E+00
             -0.186365471788324E+00
              0.173783150826576E+00
             -0.487056358935123E+00
              0.806306279842155E+00
              0.144036701230230E+00
              0.389585028945225E-01
              0.487162985291966E+00
             -0.741402075701911E-01
              0.557011279161106E+00
              0.194884713913027E+00
             -0.132713018456880E-01
              0.139109344542898E+00
             -0.113491247122993E+00
              0.631510284683242E+00
              0.662384458400576E-01
              0.212511262367277E+00
             -0.881025342228909E-01
              0.917424243305216E-01
             -0.881850131079763E+00
             -0.318514934681493E+00
             -0.471993716925962E+00
              0.466794084228366E+00
             -0.346201710725524E+00
             -0.504594513191684E+00
              0.553205957275266E+00
             -0.129984844634292E+00
              0.393040456201410E+00
             -0.820214635525398E+00
              0.160016550552580E+00
              0.243126620733632E-01
              0.711049037404994E-01
             -0.137773192785105E+00
             -0.594850541735736E-01
              0.467710127017272E+00
              0.267990940524871E-01
             -0.504217556640845E+00
             -0.222771166277894E+00
              0.152880432695932E+00
             -0.109103454150450E+01
             -0.811753087386225E+00
              0.816681318657153E-02
              0.159345388626819E+00
             -0.505584296446167E+00
              0.203575420333313E-01
              0.963303519784095E+00
              0.254980877030275E+00
             -0.513483149120380E+00
              0.635232184259820E-01
             -0.960492305021796E-01
              0.134730795659721E+00
             -0.346461237943004E+00
              0.227348921806431E+00
              0.213000286720767E+00
             -0.795504194899097E-01
              0.105688085466567E+01
             -0.349402106536747E-01
             -0.278167963777093E+00
              0.301895643390534E+00
              0.410244455883458E+00
             -0.295723454049104E+00
             -0.158180094257704E-02
              0.932380994802771E+00
             -0.824615698584275E-02
              0.474160274618330E+00
              0.159065285146838E+00
             -0.549100132704367E-01
             -0.129427218163531E+00
              0.424750484531300E+00
             -0.552523721113048E+00
             -0.184206007237635E-01
             -0.196930704021186E+00
             -0.376071173116964E+00
              0.999300762934524E-01
              0.243222647029726E+00
             -0.330262718948267E-01
             -0.169255726097672E-01
             -0.397400048753022E+00
              0.129751146622173E+00
             -0.183544987978668E-01
             -0.193738768854455E+00
             -0.186043244426118E+00
              0.147767560609395E+00
              0.674156595440678E-03
             -0.368362713276201E+00
             -0.101121875561418E+01
              0.560648218573968E-01
              0.123843248746232E+00
             -0.450801187727644E+00
             -0.249198582206614E+00
              0.774196198443627E+00
              0.131925047042186E+00
              0.422953010163542E+00
              0.109494349002014E+00
              0.367839955369187E+00
              0.125092603989518E-01
             -0.370987691040937E+00
             -0.129175725091768E+00
              0.484380082545930E-01
              0.292218677370468E+00
              0.680512810542501E+00
              0.463316414033652E+00
              0.231483661650782E-01
              0.101143277762803E+00
              0.575862700456877E+00
              0.267166220728350E+00
             -0.651589328089662E+00
             -0.261188158208191E+00
              0.104433575648528E+00
              0.978689926610450E-01
              0.232773031133157E+00
             -0.478177530339071E+00
              0.258953541323331E-01
              0.392641531251715E+00
              0.453260535146216E+00
             -0.387619681460394E+00
              0.343856052110114E-01
             -0.204640050426046E-01
             -0.204281521645425E+00
             -0.218861429799104E+00
             -0.935841189244799E-01
             -0.140813863856738E+00
              0.112984632178157E+00
              0.396115614894981E+00
             -0.302978242299467E+00
              0.774461969763358E+00
              0.300710985106543E+00
              0.247465251395322E+00
              0.368860574858285E+00
              0.218207482410824E+00
              0.344346024574549E+00
              0.522200697690480E+00
             -0.448467570490011E+00
              0.596907782096781E+00
             -0.107830381550918E+01
              0.290635008114457E+00
             -0.975965364135416E+00
              0.746661016520853E+00
              0.741001119188019E+00
             -0.715419032122626E-01
             -0.430759839527857E+00
             -0.414757954388548E+00
             -0.500661412137697E+00
             -0.629599141827005E+00
              0.508917301879747E+00
              0.401822611253014E+00
              0.225017229426993E+00
              0.233511409843046E+00
              0.428716525645072E+00
             -0.391616856798759E+00
             -0.124610109337493E+00
              0.507660499692643E+00
             -0.119716976567381E+00
              0.470473728541873E+00
              0.740457208848221E+00
             -0.388109673329683E-01
             -0.720971589415460E+00
              0.698397914304252E-01
              0.195014807075214E-01
             -0.933410910655255E-01
              0.254544122545859E-01
             -0.605919622787370E+00
             -0.596116044342854E-01
              0.149434235437067E+00
              0.148883663048984E+00
              0.473821629771769E+00
             -0.393452630547007E+00
              0.468608951303342E+00
             -0.357587527865622E+00
              0.264768196969660E+00
              0.418524420561383E+00
 
 BEEF-vdW xc energy contributions
           1 :   -6.41824674715046     
           2 :    5.10178271844432     
           3 :   -3.30848772908223     
           4 :    1.73680553227357     
           5 :  -0.636788207312868     
           6 :   1.404793878445698E-002
           7 :   0.228776844457636     
           8 :  -0.239275590667473     
           9 :   0.166660813546692     
          10 :  -0.126033668551477     
          11 :   0.157552229684199     
          12 :  -0.228476026089001     
          13 :   0.279928457889862     
          14 :  -0.272574525851408     
          15 :   0.198545074765711     
          16 :  -8.231142905633693E-002
          17 :  -3.210399878057490E-002
          18 :   0.101926232009575     
          19 :  -0.109642469316960     
          20 :   7.016661301002891E-002
          21 :  -1.885842586758102E-002
          22 :  -1.116668751153860E-002
          23 :   3.392954741360477E-003
          24 :   3.578458547111829E-002
          25 :  -8.372482303586004E-002
          26 :   0.117016460034605     
          27 :  -0.123697349055149     
          28 :   0.105980925585606     
          29 :  -7.816961445397119E-002
          30 :   5.430230227827959E-002
          31 :  -0.916587143575889     
          32 :  -0.543765817865546     

     Writing output data file ./pwscf.save/
 
     init_run     :     60.36s CPU     62.54s WALL (       1 calls)
     electrons    :    393.58s CPU    425.49s WALL (       1 calls)
     forces       :     21.93s CPU     23.80s WALL (       1 calls)

     Called by init_run:
     wfcinit      :      0.90s CPU      0.94s WALL (       1 calls)
     potinit      :     51.96s CPU     53.61s WALL (       1 calls)
     hinit0       :      6.19s CPU      6.30s WALL (       1 calls)

     Called by electrons:
     c_bands      :     51.81s CPU     52.36s WALL (      13 calls)
     sum_band     :     20.69s CPU     25.11s WALL (      13 calls)
     v_of_rho     :    231.71s CPU    252.34s WALL (      14 calls)
     newd         :      9.82s CPU     14.33s WALL (      14 calls)
     PAW_pot      :      0.66s CPU      0.66s WALL (      14 calls)
     mix_rho      :    126.08s CPU    129.74s WALL (      13 calls)
     vdW_kernel   :     33.92s CPU     33.92s WALL (       1 calls)

     Called by c_bands:
     init_us_2    :      0.87s CPU      0.88s WALL (      27 calls)
     regterg      :     50.67s CPU     51.18s WALL (      13 calls)

     Called by *egterg:
     rdiaghg      :      0.01s CPU      0.02s WALL (      89 calls)
     h_psi        :     45.91s CPU     45.92s WALL (      90 calls)
     s_psi        :      0.63s CPU      0.63s WALL (      90 calls)
     g_psi        :      0.20s CPU      0.21s WALL (      76 calls)

     Called by h_psi:
     h_psi:calbec :      0.62s CPU      0.62s WALL (      90 calls)
     vloc_psi     :     44.36s CPU     44.36s WALL (      90 calls)
     add_vuspsi   :      0.66s CPU      0.66s WALL (      90 calls)

     General routines
     calbec       :      0.75s CPU      0.75s WALL (     107 calls)
     fft          :    214.18s CPU    214.21s WALL (    2755 calls)
     ffts         :     51.08s CPU     51.08s WALL (     687 calls)
     fftw         :     40.50s CPU     40.50s WALL (     538 calls)
 
     Parallel routines
 
     PWSCF        :  15m20.92s CPU  16m45.09s WALL

 
   This run was terminated on:   9:42:15  16May2022            

=------------------------------------------------------------------------------=
   JOB DONE.
=------------------------------------------------------------------------------=
