
     Program PWSCF v.6.7MaX starts on 20Dec2022 at 16:19:46 

     This program is part of the open-source Quantum ESPRESSO suite
     for quantum simulation of materials; please cite
         "P. Giannozzi et al., J. Phys.:Condens. Matter 21 395502 (2009);
         "P. Giannozzi et al., J. Phys.:Condens. Matter 29 465901 (2017);
          URL http://www.quantum-espresso.org", 
     in publications or presentations arising from this work. More details at
     http://www.quantum-espresso.org/quote

     Parallel version (MPI), running on     1 processors

     MPI processes distributed on     1 nodes
     Reading input from chc-gas-ensemble.in
Warning: card &CELL ignored
Warning: card / ignored

     Current dimensions of program PWSCF are:
     Max number of different atomic species (ntypx) = 10
     Max number of k-points (npk) =  40000
     Max angular momentum in pseudopotentials (lmaxx) =  3
     file C.pbe-n-kjpaw_psl.1.0.0.UPF: wavefunction(s)  2S 2P renormalized
     file H.pbe-kjpaw_psl.1.0.0.UPF: wavefunction(s)  1S renormalized

     **************************************************************************
     Initializing libbeef V0.1.2 with the BEEF-vdW functional.
     Citation: Wellendorff et al., PRB 85, 235149 (2012).
     **************************************************************************


     IMPORTANT: XC functional enforced from input :
     Exchange-correlation= BEEF-VDW
                           (   1   4  43  14   2   0   0)
     Any further DFT definition will be discarded
     Please, verify this is what you really want


     gamma-point specific algorithms are used

     Subspace diagonalization in iterative solution of the eigenvalue problem:
     a serial algorithm will be used

 
     G-vector sticks info
     --------------------
     sticks:   dense  smooth     PW     G-vecs:    dense   smooth      PW
     Sum       30879   30879   7713              4086413  4086413  510875
 


     bravais-lattice index     =            0
     lattice parameter (alat)  =      40.8113  a.u.
     unit-cell volume          =   65082.6516 (a.u.)^3
     number of atoms/cell      =            3
     number of atomic types    =            2
     number of electrons       =         9.00
     number of Kohn-Sham states=            9
     kinetic-energy cutoff     =      60.0000  Ry
     charge density cutoff     =     240.0000  Ry
     scf convergence threshold =      1.0E-06
     mixing beta               =       0.7000
     number of iterations used =            8  local-TF  mixing
     Exchange-correlation= BEEF-VDW
                           (   1   4  43  14   2   0   0)

     celldm(1)=  40.811312  celldm(2)=   0.000000  celldm(3)=   0.000000
     celldm(4)=   0.000000  celldm(5)=   0.000000  celldm(6)=   0.000000

     crystal axes: (cart. coord. in units of alat)
               a(1) = (   1.000000   0.000000   0.000000 )  
               a(2) = (   0.000000   0.970594   0.000000 )  
               a(3) = (   0.000000   0.000000   0.986475 )  

     reciprocal axes: (cart. coord. in units 2 pi/alat)
               b(1) = (  1.000000  0.000000  0.000000 )  
               b(2) = (  0.000000  1.030297  0.000000 )  
               b(3) = (  0.000000  0.000000  1.013711 )  


     PseudoPot. # 1 for C  read from file:
     /users/bkreitz1/quantum-espresso/potentials/C.pbe-n-kjpaw_psl.1.0.0.UPF
     MD5 check sum: a169b0ebad56f5ec0d79c4633f80bf22
     Pseudo is Projector augmented-wave + core cor, Zval =  4.0
     Generated using 'atomic' code by A. Dal Corso  v.6.7MaX
     Shape of augmentation charge: PSQ
     Using radial grid of 1073 points,  4 beta functions with: 
                l(1) =   0
                l(2) =   0
                l(3) =   1
                l(4) =   1
     Q(r) pseudized with 0 coefficients 


     PseudoPot. # 2 for H  read from file:
     /users/bkreitz1/quantum-espresso/potentials/H.pbe-kjpaw_psl.1.0.0.UPF
     MD5 check sum: ae98473e6dc62675f0d0baffdab24f65
     Pseudo is Projector augmented-wave, Zval =  1.0
     Generated using 'atomic' code by A. Dal Corso  v.6.7MaX
     Shape of augmentation charge: PSQ
     Using radial grid of  929 points,  2 beta functions with: 
                l(1) =   0
                l(2) =   0
     Q(r) pseudized with 0 coefficients 


     atomic species   valence    mass     pseudopotential
        C              4.00    12.01100     C ( 1.00)
        H              1.00     1.00800     H ( 1.00)

     No symmetry found



   Cartesian axes

     site n.     atom                  positions (alat units)
         1           C   tau(   1) = (   0.5089769   0.4775232   0.4859387  )
         2           C   tau(   2) = (   0.4655377   0.5062408   0.4592728  )
         3           H   tau(   3) = (   0.5389085   0.4629800   0.5231463  )

     number of k points=     1  Gaussian smearing, width (Ry)=  0.0050
                       cart. coord. in units 2pi/alat
        k(    1) = (   0.0000000   0.0000000   0.0000000), wk =   2.0000000

     Dense  grid:  2043207 G-vectors     FFT dimensions: ( 216, 200, 200)

     Estimated max dynamical RAM per process >       3.02 GB

     Initial potential from superposition of free atoms

     starting charge    8.99991, renormalised to    9.00000

     negative rho (up, down):  7.099E-03 0.000E+00


     %%%%%%%%%%%%%%%%%%%%%%%%%%%%%%%%%%%%%%%%%%%%%%%%%%%%%%%%%%%%%%%%%%%%%%%%
     %                                                                      %
     % You are using vdW-DF, which was implemented by the Thonhauser group. %
     % Please cite the following two papers that made this development      %
     % possible and the two reviews that describe the various versions:     %
     %                                                                      %
     %   T. Thonhauser et al., PRL 115, 136402 (2015).                      %
     %   T. Thonhauser et al., PRB 76, 125112 (2007).                       %
     %   K. Berland et al., Rep. Prog. Phys. 78, 066501 (2015).             %
     %   D.C. Langreth et al., J. Phys.: Condens. Matter 21, 084203 (2009). %
     %                                                                      %
     %                                                                      %
     % If you are calculating the stress with vdW-DF, please also cite:     %
     %                                                                      %
     %   R. Sabatini et al., J. Phys.: Condens. Matter 24, 424209 (2012).   %
     %                                                                      %
     %%%%%%%%%%%%%%%%%%%%%%%%%%%%%%%%%%%%%%%%%%%%%%%%%%%%%%%%%%%%%%%%%%%%%%%%


     Starting wfcs are    9 randomized atomic wfcs
     Checking if some PAW data can be deallocated... 

     total cpu time spent up to now is       64.1 secs

     Self-consistent Calculation

     iteration #  1     ecut=    60.00 Ry     beta= 0.70
     CG style diagonalization
     ethr =  1.00E-02,  avg # of iterations =  4.0

     negative rho (up, down):  5.314E-03 0.000E+00

     total cpu time spent up to now is       99.7 secs

     total energy              =     -38.74391355 Ry
     estimated scf accuracy    <       0.37355309 Ry

     iteration #  2     ecut=    60.00 Ry     beta= 0.70
     CG style diagonalization
     ethr =  4.15E-03,  avg # of iterations =  3.0

     negative rho (up, down):  4.367E-03 0.000E+00

     total cpu time spent up to now is      132.1 secs

     total energy              =     -38.74250290 Ry
     estimated scf accuracy    <       0.17409816 Ry

     iteration #  3     ecut=    60.00 Ry     beta= 0.70
     CG style diagonalization
     ethr =  1.93E-03,  avg # of iterations =  3.0

     negative rho (up, down):  3.002E-03 0.000E+00

     total cpu time spent up to now is      164.7 secs

     total energy              =     -38.73942000 Ry
     estimated scf accuracy    <       0.12283221 Ry

     iteration #  4     ecut=    60.00 Ry     beta= 0.70
     CG style diagonalization
     ethr =  1.36E-03,  avg # of iterations =  3.0

     negative rho (up, down):  3.020E-03 0.000E+00

     total cpu time spent up to now is      197.5 secs

     total energy              =     -38.75268004 Ry
     estimated scf accuracy    <       0.03765689 Ry

     iteration #  5     ecut=    60.00 Ry     beta= 0.70
     CG style diagonalization
     ethr =  4.18E-04,  avg # of iterations =  3.4

     negative rho (up, down):  7.301E-03 0.000E+00

     total cpu time spent up to now is      231.4 secs

     total energy              =     -38.75130741 Ry
     estimated scf accuracy    <       0.01212924 Ry

     iteration #  6     ecut=    60.00 Ry     beta= 0.70
     CG style diagonalization
     ethr =  1.35E-04,  avg # of iterations =  3.7

     negative rho (up, down):  2.488E-02 0.000E+00

     total cpu time spent up to now is      266.0 secs

     total energy              =     -38.75178585 Ry
     estimated scf accuracy    <       0.00369378 Ry

     iteration #  7     ecut=    60.00 Ry     beta= 0.70
     CG style diagonalization
     ethr =  4.10E-05,  avg # of iterations =  4.6

     negative rho (up, down):  3.384E-02 0.000E+00

     total cpu time spent up to now is      303.1 secs

     total energy              =     -38.75145105 Ry
     estimated scf accuracy    <       0.00701354 Ry

     iteration #  8     ecut=    60.00 Ry     beta= 0.70
     CG style diagonalization
     ethr =  4.10E-05,  avg # of iterations =  3.1

     negative rho (up, down):  4.265E-02 0.000E+00

     total cpu time spent up to now is      336.8 secs

     total energy              =     -38.75122326 Ry
     estimated scf accuracy    <       0.00653123 Ry

     iteration #  9     ecut=    60.00 Ry     beta= 0.70
     CG style diagonalization
     ethr =  4.10E-05,  avg # of iterations =  3.6

     negative rho (up, down):  5.513E-02 0.000E+00

     total cpu time spent up to now is      371.5 secs

     total energy              =     -38.75234416 Ry
     estimated scf accuracy    <       0.00358891 Ry

     iteration # 10     ecut=    60.00 Ry     beta= 0.70
     CG style diagonalization
     ethr =  3.99E-05,  avg # of iterations =  4.3

     negative rho (up, down):  4.372E-02 0.000E+00

     total cpu time spent up to now is      407.8 secs

     total energy              =     -38.75147361 Ry
     estimated scf accuracy    <       0.00484170 Ry

     iteration # 11     ecut=    60.00 Ry     beta= 0.70
     CG style diagonalization
     ethr =  3.99E-05,  avg # of iterations =  3.0

     negative rho (up, down):  4.018E-02 0.000E+00

     total cpu time spent up to now is      441.0 secs

     total energy              =     -38.75165502 Ry
     estimated scf accuracy    <       0.00112908 Ry

     iteration # 12     ecut=    60.00 Ry     beta= 0.70
     CG style diagonalization
     ethr =  1.25E-05,  avg # of iterations =  3.4

     negative rho (up, down):  3.281E-02 0.000E+00

     total cpu time spent up to now is      474.9 secs

     total energy              =     -38.75157267 Ry
     estimated scf accuracy    <       0.00008590 Ry

     iteration # 13     ecut=    60.00 Ry     beta= 0.70
     CG style diagonalization
     ethr =  9.54E-07,  avg # of iterations =  5.7

     negative rho (up, down):  2.153E-02 0.000E+00

     total cpu time spent up to now is      513.3 secs

     total energy              =     -38.75151874 Ry
     estimated scf accuracy    <       0.00006491 Ry

     iteration # 14     ecut=    60.00 Ry     beta= 0.70
     CG style diagonalization
     ethr =  7.21E-07,  avg # of iterations =  3.8

     negative rho (up, down):  1.719E-02 0.000E+00

     total cpu time spent up to now is      547.4 secs

     total energy              =     -38.75152845 Ry
     estimated scf accuracy    <       0.00003588 Ry

     iteration # 15     ecut=    60.00 Ry     beta= 0.70
     CG style diagonalization
     ethr =  3.99E-07,  avg # of iterations =  3.0

     negative rho (up, down):  1.387E-02 0.000E+00

     total cpu time spent up to now is      579.6 secs

     total energy              =     -38.75154259 Ry
     estimated scf accuracy    <       0.00002838 Ry

     iteration # 16     ecut=    60.00 Ry     beta= 0.70
     CG style diagonalization
     ethr =  3.15E-07,  avg # of iterations =  3.3

     negative rho (up, down):  1.259E-02 0.000E+00

     total cpu time spent up to now is      612.5 secs

     total energy              =     -38.75154690 Ry
     estimated scf accuracy    <       0.00000745 Ry

     iteration # 17     ecut=    60.00 Ry     beta= 0.70
     CG style diagonalization
     ethr =  8.27E-08,  avg # of iterations =  3.0

     negative rho (up, down):  1.194E-02 0.000E+00

     total cpu time spent up to now is      645.1 secs

     total energy              =     -38.75154967 Ry
     estimated scf accuracy    <       0.00000140 Ry

     iteration # 18     ecut=    60.00 Ry     beta= 0.70
     CG style diagonalization
     ethr =  1.56E-08,  avg # of iterations =  3.0

     negative rho (up, down):  1.165E-02 0.000E+00

     total cpu time spent up to now is      670.3 secs

     End of self-consistent calculation

          k = 0.0000 0.0000 0.0000 (255438 PWs)   bands (ev):

   -19.7909 -14.4121  -8.0886  -7.9428  -7.9051  -1.6645  -1.1919  -0.7548
    -0.3415

     the Fermi energy is    -7.8890 ev

!    total energy              =     -38.75154950 Ry

     total all-electron energy =      -154.279739 Ry
     estimated scf accuracy    <       0.00000041 Ry
     smearing contrib. (-TS)   =      -0.00417373 Ry
     internal energy E=F+TS    =     -38.74737577 Ry

     The total energy is F=E-TS. E is the sum of the following terms:
     one-electron contribution =     -60.58799794 Ry
     hartree contribution      =      31.36789920 Ry
     xc contribution           =      -9.87155790 Ry
     ewald contribution        =      13.46985484 Ry
     one-center paw contrib.   =     -13.12557397 Ry

     convergence has been achieved in  18 iterations

     negative rho (up, down):  1.165E-02 0.000E+00

     Forces acting on atoms (cartesian axes, Ry/au):

     atom    1 type  1   force =     0.00706136   -0.00329972    0.00870082
     atom    2 type  1   force =    -0.00135024    0.00047930   -0.00053020
     atom    3 type  2   force =    -0.00571112    0.00282042   -0.00817061

     Total force =     0.015688     Total SCF correction =     0.000515

     negative rho (up, down):  1.165E-02 0.000E+00

     negative rho (up, down):  1.165E-02 0.000E+00

     negative rho (up, down):  1.165E-02 0.000E+00

     negative rho (up, down):  1.165E-02 0.000E+00

     negative rho (up, down):  1.165E-02 0.000E+00

     negative rho (up, down):  1.165E-02 0.000E+00

     negative rho (up, down):  1.165E-02 0.000E+00

     negative rho (up, down):  1.165E-02 0.000E+00

     negative rho (up, down):  1.165E-02 0.000E+00

     negative rho (up, down):  1.165E-02 0.000E+00

     negative rho (up, down):  1.165E-02 0.000E+00

     negative rho (up, down):  1.165E-02 0.000E+00

     negative rho (up, down):  1.165E-02 0.000E+00

     negative rho (up, down):  1.165E-02 0.000E+00

     negative rho (up, down):  1.165E-02 0.000E+00

     negative rho (up, down):  1.165E-02 0.000E+00

     negative rho (up, down):  1.165E-02 0.000E+00

     negative rho (up, down):  1.165E-02 0.000E+00

     negative rho (up, down):  1.165E-02 0.000E+00

     negative rho (up, down):  1.165E-02 0.000E+00

     negative rho (up, down):  1.165E-02 0.000E+00

     negative rho (up, down):  1.165E-02 0.000E+00

     negative rho (up, down):  1.165E-02 0.000E+00

     negative rho (up, down):  1.165E-02 0.000E+00

     negative rho (up, down):  1.165E-02 0.000E+00

     negative rho (up, down):  1.165E-02 0.000E+00

     negative rho (up, down):  1.165E-02 0.000E+00

     negative rho (up, down):  1.165E-02 0.000E+00

     negative rho (up, down):  1.165E-02 0.000E+00

     negative rho (up, down):  1.165E-02 0.000E+00

     negative rho (up, down):  1.165E-02 0.000E+00

     negative rho (up, down):  1.165E-02 0.000E+00

     negative rho (up, down):  1.165E-02 0.000E+00

     negative rho (up, down):  1.165E-02 0.000E+00
 BEEFens 2000 ensemble energies
             -0.763903869649054E+00
             -0.228179268313444E-01
             -0.141443406876271E+00
              0.514365415976515E+00
             -0.243700052700798E+00
             -0.166804058438420E+00
             -0.575730854854859E+00
             -0.114509689629101E+01
             -0.360753068377463E+00
             -0.402824059240609E+00
             -0.427056021110633E+00
              0.870385838428601E-01
              0.406975193181682E-01
             -0.887751182241634E-01
              0.439108739638219E-01
              0.551807424699253E+00
             -0.216625588345891E+00
             -0.744143233058603E-01
              0.301778982442281E+00
             -0.128192449233759E+01
              0.662037033898800E+00
             -0.207676507117606E+00
             -0.716515780020034E-01
             -0.968645444817249E-01
              0.570152048393053E-01
             -0.455063046241786E-01
              0.101999625413825E+01
             -0.305371392785966E+00
             -0.753531041605680E-01
             -0.670453079961191E+00
              0.760021992171810E+00
             -0.327044553156330E-02
             -0.488749920324776E+00
              0.185020726702305E+00
             -0.344543115148319E-01
              0.373300135704912E+00
              0.338489170836094E-01
             -0.292789188289015E-01
              0.481130898639617E+00
             -0.113661583598349E+01
              0.636798655481854E+00
              0.139772719634820E+00
             -0.178663329789116E+00
             -0.322071822244873E+00
              0.145585226766245E+00
             -0.222276784343633E+00
              0.611286414339196E+00
              0.406919552592722E+00
             -0.190866391384771E+00
             -0.381300663227850E+00
             -0.367845936332173E+00
             -0.444522213503138E+00
              0.295749742771915E+00
             -0.606999231315871E+00
              0.198621273848033E+00
              0.712477274516455E+00
              0.908796785278201E+00
              0.364342770036412E+00
              0.181866277606221E+00
              0.394095102636323E+00
              0.107364394076402E+01
              0.167413467133400E+00
             -0.637256230986185E+00
             -0.957066804566002E-01
             -0.355967823684709E+00
              0.716780433513931E+00
             -0.806348352469659E+00
             -0.681205628991349E+00
             -0.424185500813389E+00
             -0.267435482010728E+00
             -0.419842073290659E+00
              0.326381617321841E+00
              0.168081094786175E+00
              0.199904399302212E+00
             -0.454051774860503E+00
             -0.409747133577947E+00
             -0.701762068278593E+00
              0.340918912580035E+00
             -0.416821969278606E+00
              0.398018278849078E+00
             -0.112688073576208E+00
             -0.314875990450916E+00
             -0.550059925386885E+00
             -0.168799334008635E+00
             -0.208802465199526E+00
             -0.158334713579425E+00
              0.449462770798311E+00
              0.944389120083363E+00
             -0.546771259255767E+00
             -0.912428492109677E+00
             -0.207332076394301E+00
              0.125132825228029E+01
             -0.655915260921334E+00
              0.352888140505203E+00
             -0.139549803600924E+00
             -0.661689349007703E+00
              0.317089737129984E+00
              0.328026684824440E+00
             -0.173262548283026E+00
              0.316485386987764E+00
             -0.278062209571074E+00
             -0.744693576604610E+00
              0.121049729245808E+01
              0.527867868724852E+00
              0.209729326981190E+00
              0.144283960475356E+00
              0.293572853077154E+00
              0.933062307731590E+00
             -0.313770660153018E+00
              0.243396973088339E-01
             -0.159445251496146E+01
              0.189002428122574E+00
             -0.758449958646945E+00
              0.140270148074754E+00
              0.251414293901747E+00
             -0.443228304471760E+00
             -0.566655877091922E+00
              0.169272778035303E-01
             -0.367636458239462E+00
              0.543899704807976E+00
             -0.517870490691295E+00
             -0.127213704411268E+00
             -0.450872221415086E+00
             -0.319806352505658E-01
              0.758923738568784E-01
              0.293476766768660E+00
             -0.216933773157812E-02
             -0.637923635841631E-01
              0.800019976987422E+00
              0.107299222028150E+01
              0.586329628634905E+00
              0.706273649395131E+00
             -0.151531220145690E+00
              0.777215287109128E-01
              0.583492337906423E+00
              0.103877231806016E+00
             -0.889586517473524E+00
             -0.530898458182441E+00
             -0.566672233736925E+00
             -0.343190120821238E+00
              0.291628953830115E+00
             -0.142698683779924E+01
             -0.138936161589919E+00
              0.550415826110322E+00
             -0.469747179263228E+00
             -0.326123813441468E+00
              0.701462714011958E+00
              0.585134081349245E+00
             -0.320969111837989E+00
              0.443394458863985E+00
             -0.293136449205315E+00
              0.439690091927394E+00
              0.699542847010974E-01
              0.917426781687234E-01
             -0.937608348832840E+00
             -0.549326563543300E+00
             -0.958827164079175E-01
             -0.624196055544931E-01
             -0.504068371339339E+00
              0.131777031248246E+01
             -0.104139871897517E+00
             -0.292313947221113E+00
              0.439819331607936E+00
             -0.501631442002084E+00
             -0.451471588078256E+00
              0.389899395527434E+00
              0.151962995620598E+00
              0.119131750554008E+00
              0.212974777482514E+00
             -0.121103701783622E+00
              0.884036361526523E-01
              0.673042273225851E+00
             -0.292763981486460E+00
              0.270586164452157E+00
              0.102846807793466E+01
              0.370353907198506E+00
             -0.372667262084239E-01
             -0.251371124952059E+00
              0.181406184329554E+01
             -0.315821389082688E+00
              0.469148334404671E+00
              0.386274770329907E+00
              0.293251851022324E+00
              0.107944498137319E+01
              0.519840440371493E+00
             -0.565604474105331E-01
              0.305390502013132E+00
              0.620451883579440E+00
              0.438373475215455E+00
             -0.726738502525127E+00
              0.110644078423818E+01
             -0.100271165403517E+01
             -0.956553013551675E-01
              0.643190112154842E+00
              0.240050260235024E+00
              0.712131462619130E-01
              0.291568433302302E+00
              0.162444354752093E+00
              0.366985929907100E+00
             -0.725777406793361E+00
              0.428375409739381E-01
             -0.263380416958784E+00
             -0.544239882294102E-01
             -0.482823684190974E-01
             -0.170169402394331E+00
             -0.791500273922394E-01
              0.959974509507380E+00
             -0.490577658019635E-01
             -0.325856197608016E+00
             -0.589736527405921E-02
              0.169180438052472E+00
             -0.761009970778519E+00
             -0.697215796494768E+00
             -0.386515081869400E+00
             -0.734131203244344E+00
             -0.223947131375639E+00
             -0.461028352890353E+00
              0.203516934686990E+00
              0.382456747115179E-01
             -0.154983889984399E+00
             -0.875548681738003E-01
              0.515496777991173E-01
             -0.118221113476669E+00
              0.761968047402627E+00
             -0.104437482823226E+01
             -0.155085041311682E+00
             -0.141971694038268E+00
              0.171341041545867E+00
              0.274524460254336E+00
             -0.607945980957325E+00
             -0.123966932197328E+00
              0.520699097595183E+00
             -0.205946231807729E+00
              0.152263040541332E+00
              0.374293458581429E+00
             -0.845735028223693E-02
              0.133123068311954E+01
             -0.900034828737235E-01
             -0.396574149793116E+00
             -0.190367721647426E-01
             -0.342186134427301E+00
              0.632422510636763E+00
             -0.607155062327106E+00
              0.180791147950245E+00
              0.534986441500546E+00
             -0.141877504262244E+00
              0.136940708902237E+01
              0.148178846191550E+01
             -0.833764996867105E+00
              0.674017492752386E+00
              0.302593919548556E+00
             -0.668982677842039E+00
              0.187740462778403E+00
              0.530759221034322E+00
              0.569518819385937E+00
              0.531393710370467E-01
              0.237791452145881E+00
              0.891098213320583E+00
             -0.271073450657287E+00
              0.100200841734585E+00
              0.758988521068904E+00
             -0.412874863976228E+00
             -0.312761279176112E+00
              0.719113974821801E+00
              0.360015840819432E+00
              0.887537583419276E+00
              0.433105043641669E+00
              0.179011213072879E+00
              0.281046525820269E+00
              0.509324673116933E+00
             -0.647681925874646E+00
              0.105283791114814E+00
              0.376405793063062E+00
              0.126524024479119E+00
              0.295020678682335E+00
             -0.741355706585519E+00
              0.362713535584414E+00
             -0.499250111183033E+00
             -0.362352703678074E+00
              0.249652027267460E+00
             -0.795543171689386E-01
              0.721934018456280E+00
             -0.121069980383906E+00
              0.351753054129476E+00
              0.343971946536354E+00
              0.885084344600068E+00
              0.599301127729505E+00
              0.606274056275826E+00
              0.931814868726599E-02
             -0.157440625425191E+00
             -0.339543948246401E+00
              0.983186210681014E+00
              0.965466171189161E+00
              0.466875706802478E+00
             -0.353321798720657E+00
              0.570924704890910E+00
              0.431358123082219E-01
              0.174736147417470E+00
              0.831360491737996E+00
             -0.377552334433926E-01
             -0.113058610191642E+00
             -0.220852458253470E+00
             -0.752435858040527E+00
              0.113096754109583E+01
              0.629626214650855E+00
             -0.777650579742280E+00
             -0.276312306909331E+00
              0.285605191895194E+00
             -0.117012201473107E+00
              0.778952033260360E+00
              0.172618437875337E+00
              0.956121731865491E+00
              0.385838088092938E+00
             -0.248203759054728E+00
              0.187520578302758E+00
             -0.862684947358843E-01
             -0.269192668104102E+00
              0.206246951622748E+00
              0.168612586399109E+00
              0.107048701796682E+01
              0.886278956602379E+00
              0.679326399454082E+00
              0.765684293054264E+00
              0.869335751030653E-01
             -0.294993180357091E+00
              0.154071001781474E+00
             -0.375269971342620E+00
             -0.685244049967772E+00
             -0.645055427985233E+00
             -0.387538710051521E+00
             -0.126125586633773E+01
             -0.460744601049448E+00
             -0.101593903797221E+01
              0.252881408690256E+00
             -0.518161894750243E+00
              0.627868303318439E+00
             -0.117460682211724E+01
             -0.346936707515235E+00
              0.405085549358234E+00
              0.253225720298818E+00
             -0.108391273086659E+01
              0.594522103858464E+00
             -0.334503174586646E+00
              0.652346641670322E+00
             -0.302237387301179E+00
             -0.915686585901038E+00
              0.212642444729096E+00
             -0.773852892885662E+00
              0.753087636983008E-03
             -0.285089112182852E-01
              0.470947046625403E+00
              0.147121202846215E+01
             -0.490840970210616E+00
             -0.433842679554260E+00
             -0.977137698710244E-01
             -0.762115616825296E-01
             -0.929726513321961E+00
             -0.650734254593503E+00
              0.569069285521301E+00
             -0.181806289215475E+00
              0.283732493384518E+00
             -0.572723051641175E+00
             -0.200433657496553E+00
             -0.481225657890644E+00
              0.551918885852977E+00
              0.123089116482250E+00
             -0.289808762257711E+00
             -0.229395472074558E+00
              0.174466672638853E+00
             -0.837897900663838E-01
              0.454069606954530E+00
             -0.312811410933183E+00
              0.163499584671434E+00
              0.404523955642208E+00
              0.130965042705983E+00
             -0.302047094611051E+00
              0.180369017743672E+01
              0.719313581313862E+00
              0.127552985578322E+00
              0.618866777380713E-01
             -0.710085822986922E+00
              0.398496449337699E+00
             -0.930550277238676E+00
             -0.419351479478536E+00
             -0.714710649163308E+00
             -0.211927702963844E+00
              0.703866660737003E+00
             -0.687831186771843E+00
              0.337981148898359E+00
             -0.568095272921436E-01
              0.760916541418943E-02
             -0.342879060353934E+00
             -0.477067742912153E+00
             -0.999134461880988E-01
             -0.351619239279202E+00
             -0.245354208502630E+00
             -0.459462469235559E+00
             -0.499171074922223E-01
             -0.366106439734794E+00
             -0.556252369089026E+00
              0.234833233878747E+00
             -0.114316278022380E+00
              0.302210514582077E+00
              0.911790890235565E-01
             -0.892852907337413E+00
             -0.581319033057163E+00
             -0.616599992535139E+00
              0.350747990935631E+00
             -0.976810173231286E-01
             -0.708352224852149E+00
              0.668208341295016E+00
             -0.495557045974287E+00
              0.704566067076796E+00
             -0.374097589209445E+00
             -0.578811845281603E+00
              0.268186431935455E+00
             -0.855516503459908E+00
             -0.351408863489358E+00
              0.667803098037774E+00
              0.239095602790079E+00
             -0.538863984568894E+00
              0.671376539841661E+00
             -0.186654598099322E+00
             -0.446304928067476E+00
             -0.343986868703784E+00
             -0.616565632548013E+00
              0.315431114417724E+00
             -0.101354212735932E+01
             -0.873077602121282E+00
             -0.959415876466423E-01
             -0.340895184557130E+00
             -0.721366360262684E+00
              0.904433352093818E+00
              0.163132095423291E+01
             -0.217248527048137E+00
             -0.538226373941582E-01
             -0.692371763778757E+00
              0.783003992340205E+00
              0.262563773278750E+00
             -0.257805698859929E+00
             -0.413098414359775E+00
              0.166648512803958E+00
             -0.690922225552955E+00
             -0.120242527552145E+00
             -0.988215009109455E+00
              0.397620084923533E+00
              0.114767016652785E+00
             -0.738194728759325E-01
             -0.159160693010598E+00
             -0.516562138911677E+00
             -0.175225447260289E+00
              0.162324496101426E+01
             -0.179242168580322E+00
             -0.585081041753241E+00
             -0.821028730431122E+00
              0.172883217659835E+00
             -0.462596883311477E+00
              0.131860896109367E+00
              0.401241974982613E+00
              0.553517902327458E-01
              0.433762591722033E+00
              0.225189424945395E+00
              0.682362599102834E+00
              0.269927745060942E+00
             -0.439197367614545E+00
              0.679120527121779E+00
              0.395786560916841E+00
              0.147669096617586E+00
              0.418221067568355E+00
             -0.395324326163211E+00
              0.831037547646790E+00
              0.331674373649642E+00
             -0.420084587460209E+00
             -0.614095771260804E-01
             -0.193410238128470E+00
              0.164446860283890E+00
             -0.286663099627776E+00
             -0.168012996176564E+00
             -0.157029698166887E+00
              0.950726335212552E+00
              0.697841259007389E+00
             -0.732734871990774E+00
             -0.108663958793089E+00
             -0.574609688125519E+00
             -0.149224761607067E+00
             -0.240704385514639E+00
              0.143445158225221E+00
             -0.366283141500366E-01
             -0.346638905242019E+00
              0.229629748287404E+00
             -0.114534368412227E+00
             -0.692303025528923E-01
              0.102592685522129E+01
              0.160494306038585E+00
             -0.993402123379000E+00
             -0.434697283189672E+00
              0.113880467054066E+01
              0.271226874253156E+00
             -0.973062051348217E-01
              0.129376527016395E+01
             -0.178613272932453E+00
             -0.858420438916632E-01
             -0.156335489156432E+00
              0.195312171203676E+00
              0.409195676831213E+00
              0.238416682305524E-01
              0.330882602912860E+00
             -0.115149545360781E+00
             -0.491637981594313E+00
             -0.461578964925943E+00
             -0.561397168753079E+00
              0.465733340762319E+00
              0.171974964307605E+00
              0.442630798655403E+00
              0.191764556337756E+00
              0.107308811365876E+01
              0.247932145847368E+00
             -0.900013932421068E+00
             -0.392143612412455E+00
              0.680739091635352E-02
             -0.327681795038136E+00
              0.754992593131175E+00
             -0.187149847020645E+00
              0.199318695450753E+00
              0.662218537440946E+00
             -0.963598306292369E+00
              0.173038462117684E+01
              0.233779426085533E+00
              0.282094961369848E+00
              0.453546976264448E+00
              0.246981950697558E-01
             -0.181288556102444E-01
              0.373623798889604E+00
             -0.414863873971543E+00
              0.103882452883260E+01
              0.906557360124966E+00
             -0.460013941995142E+00
              0.198632085404093E+00
              0.852095638089742E+00
             -0.247579765588389E+00
              0.257608579940137E+00
              0.364858292400453E+00
              0.478877447616913E+00
             -0.864767753133505E+00
             -0.497667423737029E-01
             -0.288421263776994E+00
             -0.707585339432653E-01
             -0.904657183961234E-01
              0.105983911894408E+00
             -0.132807399799669E+00
             -0.361939477347622E+00
              0.217865145960815E+00
              0.573205722659225E-01
              0.624796955914381E+00
             -0.560253267833790E+00
              0.558981915699815E+00
              0.606381695982797E+00
             -0.768452669321715E-01
              0.851897572960679E+00
             -0.787935886791224E+00
             -0.121446214137924E+01
             -0.103995291881566E+00
             -0.851318704264266E-01
             -0.129170600909596E-01
              0.922332721015051E+00
              0.587369229305001E-02
              0.507382470429182E+00
              0.726768558625277E+00
              0.460463917009537E+00
             -0.823526783247859E-01
              0.686834036220599E+00
             -0.203119554732149E+00
             -0.470042206338606E+00
             -0.396328335587455E+00
              0.135793157357644E+00
              0.400597189086846E+00
             -0.194455077578262E-01
              0.381672433827246E+00
              0.117487443806965E-01
              0.636502812450020E+00
              0.177785856197823E+00
              0.941751254028458E-01
              0.267927896851985E-01
              0.338148047455689E+00
              0.483550046000262E+00
              0.156645353044622E+00
             -0.450468617525694E-01
             -0.642004692046386E+00
              0.358742090891535E+00
              0.248403689859117E+00
              0.371936197280753E+00
              0.349251103573250E+00
              0.429217376632045E+00
             -0.114622140267367E+00
              0.420813593983679E+00
             -0.351271899761509E+00
             -0.169469162772637E-01
             -0.612288480838917E+00
             -0.408974962478501E+00
              0.513138982176888E+00
             -0.102698362634764E+01
              0.269866324607759E+00
              0.160966492148835E+00
              0.102003450956370E+01
             -0.119273751597031E+00
              0.393114085021094E+00
             -0.132330670983772E+00
             -0.589915889781520E+00
             -0.750488371139753E+00
             -0.198684497332303E+00
             -0.107627755910646E+01
              0.765159050669819E-01
             -0.233722841739388E+00
              0.388537991971802E+00
              0.299105919692831E+00
             -0.349081900697786E+00
             -0.364740258758956E+00
              0.507899450353491E+00
             -0.682610108747743E+00
             -0.164938566484929E+00
             -0.188426197749351E+00
              0.335638796920270E+00
              0.850263094392023E-01
              0.426012163564842E-01
             -0.168863894966493E+00
              0.627278313317013E+00
             -0.744187070039433E+00
              0.720823317894412E-01
              0.709175623364479E+00
             -0.439340320380020E+00
              0.453779916820309E-01
              0.392184038957879E-01
             -0.752571878642444E+00
             -0.423531117804699E+00
             -0.507190382016787E-02
              0.379595274595133E+00
              0.421469204610760E+00
              0.501885836130667E-01
             -0.154624632048045E+00
              0.199556458017708E+00
             -0.467505405216084E+00
             -0.733641635861741E-01
             -0.621600819033884E+00
             -0.306436167289718E+00
              0.593053110121015E+00
             -0.358887089321042E+00
              0.839041786193125E+00
             -0.287416127218125E+00
              0.381016395820287E+00
              0.301361604853809E+00
             -0.698581626967122E+00
             -0.287506556130508E+00
              0.123627793983307E+00
             -0.509499756991292E+00
             -0.495857418476793E+00
             -0.106808630247989E+01
             -0.649395583595919E+00
             -0.576074681860485E+00
             -0.533035174320396E+00
             -0.581113304020775E-03
              0.311567915299246E+00
              0.155799536699675E+00
              0.349230468595450E+00
             -0.695703235405887E+00
              0.155859360054918E+00
              0.350761005159147E+00
             -0.811387664030899E+00
             -0.652654532713146E+00
             -0.462078013079466E+00
             -0.413559539544294E+00
              0.157721882560761E+00
             -0.485835866145026E-01
             -0.484052652141521E+00
              0.308567699552699E+00
             -0.282139919549085E+00
              0.616921194184580E+00
             -0.103734971445677E+01
              0.766576277354603E+00
             -0.158689437544838E+00
             -0.528616037097337E+00
             -0.326093680708988E+00
             -0.232350222762860E-01
              0.591931995989819E+00
             -0.812093944109768E+00
             -0.147178637866452E+00
             -0.191162795710180E+00
              0.465087370245353E+00
              0.938846826156965E+00
             -0.119252991168350E+01
              0.107613921149422E+01
              0.434889107933480E+00
             -0.903143037472293E+00
             -0.354356978194194E+00
              0.941786996509890E+00
              0.664031551804003E+00
             -0.255307416005514E+00
             -0.881768831551470E-01
              0.231745817233991E+00
              0.940773523831604E+00
             -0.712646369619983E+00
              0.140138571989257E+00
             -0.955330215933761E-01
              0.290960019369983E+00
             -0.820580998006121E+00
             -0.214930221178665E-01
             -0.298647130737141E+00
              0.573879090671042E+00
              0.437070057434404E+00
             -0.105823694021282E+01
             -0.548502095657973E+00
             -0.236014377145080E+00
             -0.539230154723806E+00
             -0.146701148207661E+00
             -0.193242912813763E+00
              0.545901944993327E+00
              0.509222065260943E+00
             -0.440010089612120E-02
             -0.528535010743611E+00
             -0.102285282970823E+01
              0.616534153603544E+00
             -0.532859616889570E+00
             -0.455479043044222E+00
              0.882504970124147E-01
             -0.451008611554513E+00
             -0.473150713454138E+00
             -0.380485911211987E+00
             -0.626261269624139E+00
             -0.271662110873952E+00
             -0.586232377581307E+00
              0.637986991212435E+00
              0.678198025539420E+00
             -0.147163970083422E+00
             -0.230633561760103E+00
              0.485138810652153E-01
              0.496497872315887E+00
             -0.989479345723188E+00
             -0.282838995905469E+00
              0.581086642806849E+00
              0.861543923537484E+00
             -0.101999653747609E+00
              0.115677711986556E+00
              0.627511639248882E+00
              0.172314298313605E+00
              0.424896250074385E-01
             -0.453584467040540E+00
              0.151508699473722E+00
             -0.377546714276129E+00
             -0.661291079542954E-01
             -0.261745382472951E+00
             -0.156945462436459E+00
              0.298053414287786E+00
              0.936402180387654E+00
             -0.943223570007325E-01
              0.161631852163726E-01
             -0.108189918920753E+01
             -0.212038072474794E+00
             -0.415328128068733E+00
             -0.238233779655257E-01
             -0.581906497853442E+00
              0.109312471484155E+01
              0.102846251030879E+01
              0.220552697789865E+00
             -0.291623164543016E+00
              0.227505950384491E+00
              0.222654456002894E+00
             -0.544365583812161E+00
             -0.114997942432001E+00
              0.248116331946795E+00
              0.132203889288747E+00
              0.593460074206452E+00
              0.448603673099975E+00
             -0.243541267741684E+00
              0.232382426356968E+00
             -0.114956132977936E+01
             -0.163951970267379E-01
              0.106496496875244E+01
              0.225609008924514E+00
             -0.395152745352014E-01
              0.310948510763454E+00
             -0.278366168554362E+00
              0.100883186876195E+01
             -0.251848109484951E+00
              0.896653208789115E+00
              0.457910233002675E+00
             -0.533938213468796E+00
              0.395043533606174E+00
             -0.326156699178721E+00
             -0.800950833830506E+00
             -0.955815394931885E-01
             -0.636445175852212E+00
             -0.611408952665190E+00
             -0.117976379763056E-01
              0.458268605016213E+00
             -0.181698149388862E+00
             -0.350782871093272E+00
              0.835214540828741E-01
             -0.760081770509292E+00
             -0.303130364256815E-01
             -0.103237667627820E+01
              0.606914709083773E+00
             -0.517974791851017E-01
             -0.578580449856324E+00
             -0.169304351645101E+00
              0.201402019186373E+00
             -0.464414656267260E+00
             -0.517285387045569E+00
              0.108584309540169E+01
             -0.339256561399067E+00
             -0.422533395763075E+00
              0.386586202131835E+00
             -0.278018907997602E+00
              0.691847948219133E+00
             -0.287043280267696E-01
              0.215830529913061E-01
              0.131204182398277E+01
             -0.828702289912435E-01
             -0.460899561278489E+00
             -0.580374039564218E+00
             -0.598033766997698E+00
             -0.449465698150304E+00
              0.346789870902294E+00
              0.382961476884779E+00
              0.337514676476746E+00
              0.876291144295257E+00
              0.719301678718511E-01
              0.280034805421592E+00
             -0.667063855006440E+00
              0.237016146655504E-01
             -0.166152143013551E+00
             -0.322080866566701E+00
             -0.102412200599251E+00
              0.387913008801114E+00
              0.448952727230372E+00
             -0.377081686114385E-01
              0.168435618157072E+00
              0.315724683128026E+00
              0.391040538043976E+00
             -0.281699231117565E+00
             -0.112279401975340E+00
              0.333285878486911E-02
             -0.311593671940130E+00
             -0.229536567789710E-01
             -0.499760319444252E+00
              0.943517083785363E+00
              0.728335200016825E+00
             -0.223360906825000E+00
              0.202208431253411E+00
             -0.725839541606177E-01
             -0.396705258931914E+00
              0.449123582015501E+00
             -0.112398933642089E+00
              0.434346367109518E+00
             -0.551826879655304E+00
              0.207319593100206E+00
             -0.889987528370062E-01
             -0.630572783162957E+00
             -0.281519434535301E+00
              0.278838452391700E+00
             -0.116737419409084E+01
              0.452045946831381E+00
              0.544161309338825E+00
             -0.123340381731820E+00
             -0.920858796272994E-01
             -0.471155597907469E-01
              0.320732304258199E+00
             -0.404269596545413E+00
              0.355474214300731E+00
              0.384643514261304E+00
             -0.103839052969160E+01
             -0.440171046801250E+00
              0.284957763767765E+00
             -0.150621155282341E+00
              0.598437480806978E+00
             -0.735029621572115E+00
             -0.137728218910375E+00
             -0.466631024815184E+00
             -0.154982150067211E+01
              0.935637326008681E+00
             -0.700314653266592E+00
             -0.804395066196431E+00
              0.678023777633158E-01
              0.152188981267511E+01
              0.909212934288264E-01
             -0.403829599610525E+00
             -0.172709935338373E-01
             -0.433863568497974E-01
             -0.100314203510451E+01
             -0.635777642132568E+00
              0.101582465553268E+01
             -0.154902285061452E+00
             -0.414695830834768E+00
              0.560877990905182E+00
             -0.385640388892336E+00
              0.383701249387440E+00
              0.562227093648755E+00
             -0.611804800815257E+00
             -0.337815197460460E+00
             -0.373923865666939E+00
             -0.219210779733699E+00
             -0.226866572525218E+00
             -0.238433109093480E+00
              0.243390882302242E+00
             -0.422550996570392E+00
              0.319763615071051E+00
              0.633328246565684E+00
             -0.609210487491880E-01
             -0.256002013973050E+00
              0.188334693079507E+00
              0.643845635566962E+00
              0.656804661313384E+00
              0.144220537869515E+00
             -0.142513723268364E+00
             -0.142972475052480E+00
             -0.635674160877442E+00
              0.482650475252938E+00
             -0.287949271666993E+00
              0.276369743911135E+00
             -0.150056599639778E+00
              0.297540291774975E+00
              0.207103537655239E+00
             -0.967397354358276E+00
             -0.292080941429215E+00
             -0.929730416011875E+00
             -0.487036287289714E+00
              0.453407847638940E-01
             -0.238587976823122E+00
              0.422797933199432E+00
             -0.334078764465667E+00
              0.435548429661421E-01
              0.782032516146058E-01
              0.816083732185581E+00
              0.414791078117796E+00
             -0.396829435823643E+00
             -0.344257494545865E-01
              0.183806724786812E+00
              0.437676456472188E+00
             -0.894461872716024E-02
              0.674534422983961E+00
              0.319758415488446E+00
              0.106991065243068E+01
              0.402264165736501E-01
              0.718228723852272E+00
             -0.327210837668909E+00
             -0.459247551707542E+00
              0.160253317577856E-01
              0.134462536526303E+00
              0.259512366592458E+00
             -0.266324400118036E+00
             -0.123310723678554E+00
              0.277303710267360E+00
             -0.563562144089021E+00
             -0.721129949821851E+00
              0.949949067081925E+00
             -0.687124284663723E-01
             -0.417131019230622E+00
             -0.678541476118069E-01
             -0.168963918045740E+00
              0.541190710081677E+00
              0.431102027449172E+00
             -0.239401524039237E+00
              0.212094652926598E-02
             -0.299716849038345E+00
             -0.422166947121482E+00
             -0.273342462162576E+00
             -0.116116559600559E+01
              0.266788435861662E-01
             -0.747246296134527E+00
             -0.704743833908551E+00
             -0.428304068027283E+00
              0.278206717271400E+00
             -0.451596253213878E+00
              0.296457794323984E+00
             -0.776900407648603E+00
              0.139285644167231E-02
             -0.502896089134632E+00
              0.963386106089046E-01
              0.921935814661472E-01
              0.428000511352768E+00
             -0.248198880349553E+00
             -0.217055056857465E+00
              0.384626019305160E+00
              0.697815387983426E+00
              0.383563075024596E+00
              0.140790754676839E+00
             -0.887535042161082E+00
             -0.195258180342858E+00
             -0.322544925493792E+00
             -0.724799151455890E+00
              0.505029296479932E+00
             -0.412281173974034E+00
             -0.933284472928277E-01
             -0.332802898400631E+00
             -0.116256265497054E+01
              0.667715753762678E+00
             -0.221528918624440E+00
              0.451407888392898E+00
             -0.879212434816349E+00
              0.774411777363414E+00
              0.743513947190131E-01
             -0.292808272541985E+00
              0.136002390864594E+00
             -0.228971445024873E+00
             -0.720331789945936E+00
              0.204439148589622E+00
              0.486662430055133E+00
             -0.254037813293451E-01
             -0.403786968965671E+00
             -0.191988836103532E+00
              0.252202542128266E+00
              0.448677155233917E+00
              0.723084844722946E+00
              0.258474030645486E+00
             -0.275693455144251E+00
              0.121003513730439E+01
              0.240600340482962E+00
              0.575813233197898E+00
             -0.198289276145537E+00
              0.345345680682107E+00
              0.296059614325592E+00
             -0.723455563786714E+00
             -0.268106282004718E+00
             -0.477931938375520E+00
             -0.510627016359869E+00
             -0.146467624881742E+00
             -0.890366038537334E-01
             -0.565764603620927E+00
             -0.129798412161588E+01
             -0.315468686804609E+00
              0.156559779573964E+00
              0.710549051453100E-01
              0.199892397754838E+00
              0.464795995464178E+00
              0.114384188396841E+00
              0.366425972710894E+00
             -0.510339230680224E+00
              0.503922690975078E+00
             -0.454806327868293E+00
             -0.779408114213632E+00
              0.248039464284638E+00
             -0.507922136106376E+00
             -0.467364268960693E+00
             -0.187856884493571E+01
             -0.805067237172574E-01
              0.100188072216735E+01
              0.461346107453601E+00
             -0.116814611949941E+00
             -0.127390619090596E+00
              0.543458726886849E+00
              0.751889323724797E+00
             -0.451502332955500E+00
             -0.156681196828239E+00
             -0.438166092082995E+00
             -0.390831470092396E+00
             -0.340793505635456E+00
              0.114972233600184E+00
              0.810472068567582E+00
             -0.764365018244476E+00
             -0.643938060897298E+00
              0.523475640696853E-01
             -0.187020222651274E+00
             -0.203309869542203E+00
             -0.104625687475346E+01
              0.760901537515527E+00
              0.219605438291627E+00
              0.118088767986046E+00
              0.617779116696113E+00
             -0.392053909294161E+00
              0.402060100779380E+00
              0.336780328829763E+00
              0.596911020299018E-02
             -0.100048384243012E+00
              0.894110545434757E-01
             -0.189551059686671E+00
              0.638945669851749E+00
             -0.462303399304049E+00
              0.559545332295199E+00
              0.106626774750263E+00
              0.212530810050939E+00
              0.230363947237503E+00
             -0.956501671495485E+00
              0.128481356765958E+00
             -0.784435348062531E+00
             -0.562708832818599E+00
             -0.556260001251289E+00
             -0.635606492766799E+00
             -0.405757854500877E-02
              0.235430972698263E+00
              0.590713711374059E+00
              0.807214861579949E-01
              0.174091496223093E+00
             -0.814595422479385E+00
             -0.332276967461109E+00
              0.372316289765630E+00
             -0.646808560243420E-01
             -0.504836984968162E-01
             -0.113104622291508E+00
              0.421225697638213E+00
             -0.106332114197099E+01
              0.161488264458171E+00
              0.234421627439354E+00
              0.456653895193406E+00
              0.434130091829865E+00
             -0.664426039575858E+00
              0.196030643972843E+00
              0.840138382812270E-01
              0.816886764196667E-01
              0.828752699239876E-01
             -0.230564379673492E+00
             -0.531480835983675E+00
              0.212513462745153E+00
              0.679038040289223E+00
              0.601368495060051E-02
              0.166044815838315E+00
              0.145273738894234E+00
             -0.371579760175464E+00
             -0.402162356787734E+00
             -0.145687723181855E+01
             -0.437190143263875E+00
             -0.708178544459032E+00
             -0.700863093953821E-01
             -0.812236418799819E+00
              0.885897740852220E+00
             -0.404522390560461E+00
             -0.649764391146666E+00
             -0.184103209537307E+01
              0.785135789026527E+00
              0.178432336915425E+00
              0.150329913514098E+00
             -0.712390314081769E+00
              0.407242034871675E-01
             -0.196407423511365E+00
             -0.362164434460676E+00
              0.103401625282826E+00
              0.381830778501947E+00
              0.531817731339306E-01
             -0.252519228981325E+00
              0.573987085357457E-01
              0.136327788581134E-01
              0.108735440608901E+00
             -0.789883286604119E+00
              0.875304944389515E+00
             -0.488755257449768E+00
             -0.310593596416815E+00
             -0.633816780871213E+00
             -0.131191229744811E+01
              0.488251091546885E-01
             -0.693393202052858E+00
             -0.199861035991445E+00
              0.354704098102111E+00
             -0.324697559078745E+00
             -0.152132837290952E+00
             -0.156896100300486E+00
             -0.218059863526336E+00
              0.497842405262856E-01
              0.607663932043276E+00
             -0.580257743958920E+00
              0.124565435160842E+01
             -0.307585045459621E+00
              0.370206870495447E+00
             -0.241651776706501E+00
              0.135966260155545E+00
             -0.144327312025803E+00
              0.515493722643691E+00
              0.735083215035849E+00
              0.212719227022979E+00
              0.496713145018712E+00
             -0.329580242713871E+00
             -0.100093469288424E+00
             -0.276122965395823E+00
              0.747339908970829E+00
              0.647285040036913E+00
              0.468369331234840E+00
             -0.143098421349203E+00
             -0.293542443559026E+00
              0.285829508038778E+00
             -0.349776653935971E+00
             -0.174351840027905E+00
             -0.637140453021268E-01
             -0.433792918396269E+00
              0.569382382858842E+00
             -0.139593085111534E+00
              0.422508776829494E+00
              0.282445273153965E+00
              0.170448945454966E+00
             -0.400745397051562E+00
              0.282370192501334E+00
             -0.162995868740592E+00
             -0.779570295845398E-01
             -0.645041843824901E-02
             -0.555661809144552E+00
              0.907763730114812E+00
             -0.310646207077869E+00
              0.143158010205102E-02
              0.301944171559877E+00
              0.246874393595373E+00
              0.916412062125295E+00
             -0.260578080198786E+00
              0.881016661915165E+00
              0.781189903353738E+00
             -0.108812235677152E+01
              0.777806610906027E-01
             -0.212511222850111E+00
              0.149651694906860E+00
              0.495290832223987E-01
              0.266657521131189E+00
              0.761994240408646E+00
              0.120044854592215E+01
             -0.850189897610623E+00
              0.892053663631339E+00
             -0.120080389742698E+01
             -0.103314475262848E+01
             -0.182215802414372E+00
              0.802192796468582E-02
              0.941986843558064E+00
              0.365076834650378E+00
             -0.145516653125555E+00
             -0.959475817160470E+00
              0.783184126396275E+00
             -0.467891544823423E+00
              0.187914322474008E-01
             -0.650426912353860E-01
              0.152853698688509E+01
             -0.252042758720457E+00
             -0.123926509524567E+01
              0.356982386712472E+00
             -0.191591158397618E+01
              0.147767574481033E+00
             -0.457395389370947E+00
             -0.205293924768212E+00
             -0.300903825138912E+00
             -0.707985621749510E+00
              0.427282006452798E+00
             -0.436740545183731E+00
             -0.173852761466160E+00
             -0.883438270262968E+00
             -0.437943920511401E-01
             -0.648704189482286E+00
             -0.913127567892394E+00
             -0.120895188269481E+01
              0.823383628945273E-01
             -0.451277487715326E+00
              0.148316452148374E+00
             -0.164108225066059E+00
             -0.981170385486407E+00
             -0.759334891205487E+00
             -0.669802396958522E+00
             -0.705496089875220E+00
              0.608738895846105E+00
              0.545770529291816E-01
             -0.593351487232991E+00
             -0.302857419257153E+00
             -0.335550715385084E+00
              0.501798550974575E+00
             -0.356610095560944E+00
             -0.333028722845590E-01
             -0.389883610069280E+00
             -0.466820115020853E+00
             -0.500333725487997E+00
              0.475559499241052E+00
             -0.145914606467810E+00
             -0.109448549241748E+01
              0.908311023288580E+00
              0.524000917506818E+00
              0.275152909273251E-01
             -0.973647670172097E+00
             -0.876359804116610E+00
              0.463140860423472E-01
              0.106399553502667E-02
             -0.399810691072005E+00
             -0.505947397710382E+00
              0.338195652878932E+00
             -0.499989251640840E-01
              0.318995983460589E+00
              0.562825767489104E+00
              0.410322853775873E+00
              0.279906383719341E+00
              0.249359065426387E+00
             -0.263191605195487E+00
             -0.187623468056836E+00
             -0.224182877686597E+00
             -0.461567780298343E+00
             -0.548477441732289E+00
             -0.699581758777752E+00
             -0.416007564935899E+00
             -0.155810776887200E+00
             -0.855342112120491E+00
             -0.227879720724094E+00
              0.435202501627256E+00
             -0.102672472706400E+01
              0.451171079952406E+00
              0.365846590436453E+00
             -0.869930252490714E+00
             -0.654865014667838E+00
             -0.282833051882792E+00
              0.130668358591798E+00
             -0.492810128785343E+00
              0.897472324795012E+00
              0.793602523553727E+00
             -0.916786520420329E+00
              0.473132972926985E+00
              0.430009382915922E+00
              0.112097132932329E+00
              0.215404721257416E+00
             -0.504242743690433E+00
             -0.187730747337415E+00
              0.821342510336871E-01
              0.246672589435275E+00
              0.478050972970106E+00
             -0.634461925474386E+00
             -0.142792685744537E+00
              0.183078273220374E+00
              0.151545361239196E+00
             -0.414898437061226E+00
              0.218033145912388E+00
             -0.287718378713902E+00
             -0.209103861064861E+00
             -0.178637660813363E-01
             -0.731308834781276E+00
             -0.348967308025561E-02
             -0.756755722765448E-01
             -0.190072669695302E+00
              0.208258188607651E+00
             -0.616153201893318E+00
              0.699865835986548E+00
             -0.244519306086245E+00
             -0.160071066447417E+01
             -0.101268134945567E+01
              0.399278613419602E+00
             -0.514523359172472E+00
             -0.259556775482563E+00
             -0.257295125170952E+00
             -0.233930986827478E+00
             -0.122826939651921E+01
              0.642240237516312E-02
             -0.732080962583823E+00
             -0.404967480592828E+00
              0.222315736400044E+00
              0.953153270131832E+00
              0.626075400673708E-01
              0.363416954880276E-01
              0.716142303500244E+00
             -0.709799593595728E+00
              0.315045701014210E+00
              0.648923045537071E-01
             -0.645091302822135E+00
             -0.388542925842525E+00
              0.219006284773766E+00
              0.452726083110906E-01
              0.209636828691578E+00
              0.165324586248983E+00
             -0.279180648836785E+00
             -0.409367291139997E+00
             -0.592527981837704E+00
              0.591256746754155E+00
             -0.812550581293391E+00
             -0.596655724472748E+00
              0.171574071839977E+00
             -0.983926844553943E+00
              0.287888572065202E+00
              0.716016842110216E+00
             -0.150596423404938E+00
              0.258980439046618E+00
             -0.422374950025578E+00
             -0.270954236568699E+00
              0.127821968607416E+00
              0.422338053263062E+00
             -0.426816392815465E+00
              0.251853364538524E+00
             -0.173124542827981E+00
              0.118838081386119E+00
              0.199475552140542E+00
              0.936636822011714E-01
             -0.159978942528594E+00
             -0.943238181246508E-02
              0.119769263915640E+00
              0.330214187334451E+00
             -0.837185017803053E+00
             -0.336516750909830E-01
              0.618369243987977E+00
             -0.102468119529189E+01
              0.390040968436241E+00
             -0.132701641681793E+01
             -0.143515481801431E+00
             -0.164075270644869E+00
             -0.216982191202124E-01
             -0.155377782586386E+00
             -0.328984823879731E+00
             -0.137198593167918E+00
              0.136062538903545E+00
             -0.309853425613491E+00
              0.123595244444895E+00
              0.108137377152733E+01
             -0.658069262357374E+00
             -0.293292500933507E+00
              0.510800502061530E+00
              0.242635517710282E+00
              0.512533341404677E+00
              0.252559641998670E+00
              0.170965627544776E+00
             -0.169096338131277E+00
             -0.586079755448119E+00
             -0.533340615358196E+00
             -0.443638402904394E+00
              0.834531879235927E-01
             -0.507106338369482E+00
             -0.131943850644123E+00
              0.678348699882265E-01
              0.292424402656280E+00
             -0.744548266065871E-01
              0.701237861365245E+00
             -0.804719211497539E+00
             -0.225824948799458E-02
             -0.925401955489235E-01
              0.377985419626316E+00
             -0.493827406700362E+00
             -0.328766039112542E+00
              0.130349633330262E+00
              0.519788015002808E+00
              0.904922519262635E+00
              0.340813418492563E+00
              0.553654219850652E+00
             -0.282291417620985E+00
              0.744151725060488E+00
              0.741893740410315E+00
             -0.520351336585279E-02
              0.342870694533895E+00
              0.440657576884636E+00
             -0.244352933494462E+00
              0.196213351739354E+00
              0.781399056253608E+00
             -0.234654621058986E+00
             -0.637951753596795E-01
             -0.732384136789500E+00
              0.253648942113556E+00
             -0.191688394802496E+00
              0.260312514139270E+00
              0.159189136869564E-02
             -0.456867832082980E+00
              0.535509627929097E+00
              0.460986756729286E+00
             -0.385778564596689E+00
              0.205420459001322E+00
             -0.712601490479726E+00
             -0.647913077917093E+00
              0.291932624516086E+00
             -0.802332117368877E+00
             -0.421858319964061E+00
             -0.113110617689340E-01
              0.102047678789413E+01
             -0.270153243513032E+00
             -0.128695221115013E+00
             -0.255622054752006E+00
              0.131355255649826E+01
              0.217907954779863E+00
             -0.506364799496519E+00
              0.842376519997972E+00
              0.735806863512399E+00
              0.389989598537412E+00
              0.952204484489101E+00
              0.104863177539839E+01
             -0.243988217534482E-01
             -0.336693160199159E+00
             -0.279532465162376E+00
              0.334528132259592E+00
              0.468672688461970E+00
             -0.894932031970894E-01
             -0.286879530633427E+00
             -0.665371519119917E+00
             -0.226764647597940E+00
             -0.552069165128393E+00
              0.407905510444194E+00
              0.213600919168586E+00
              0.717056117980023E+00
              0.174276307618863E+00
             -0.264271127981293E+00
             -0.107874191562875E+00
              0.464759066870096E+00
              0.112539248458500E+00
              0.743780853771657E+00
              0.647113325866441E+00
             -0.894713011784503E-01
             -0.109094398508553E+00
             -0.121152339873398E+01
              0.576098057716402E+00
              0.106363423754052E-01
              0.684827269873698E+00
             -0.315666205280053E+00
             -0.791279176147838E+00
              0.228116437269929E+00
              0.867581034658946E+00
             -0.295593810582473E+00
              0.776504814979140E+00
             -0.845278914602093E+00
             -0.312165322731661E+00
             -0.102492193386665E+01
              0.173574364861579E+00
              0.331735926911660E-01
              0.116984154303022E+00
             -0.740442935802316E+00
              0.112009480927094E+01
              0.641356290292088E+00
              0.660693908823715E-01
             -0.671387698967655E+00
              0.234676780623517E+00
             -0.195882839832282E+00
             -0.189865746306636E+00
             -0.340691225463876E+00
              0.192366911947112E+00
             -0.221235285085133E+00
             -0.216090299354345E+00
              0.286833359195928E+00
              0.272261998283527E+00
             -0.106838517471255E+01
              0.231997577654738E+00
              0.781626156906549E+00
              0.501324807190754E+00
             -0.148967711093796E+00
             -0.386404409042895E-01
             -0.432853062635544E+00
              0.650444034179830E+00
              0.899666555132370E-01
             -0.255185161362523E-01
             -0.749573072982939E-01
              0.128433547834203E+01
             -0.103080711694973E+00
              0.241311655059959E+00
              0.889111005450819E+00
              0.112298585053694E+01
              0.702416773954105E+00
              0.450936564235555E+00
             -0.764695143363163E+00
             -0.551636358434828E+00
              0.434558663895584E+00
              0.746905972674337E-01
              0.363786765956352E+00
              0.136497753757586E+00
              0.771995618214844E+00
             -0.936953791312352E+00
             -0.579218346745635E+00
             -0.143229607235929E+00
             -0.103933181609891E+01
              0.236390701687105E+00
              0.564519035459629E+00
             -0.256974710531921E-01
             -0.237551630496068E+00
              0.234926473843034E+00
              0.157664596287001E+01
              0.390437342388911E+00
              0.214874892241378E+00
             -0.550625845374685E+00
             -0.669062745330680E+00
             -0.149521426659198E+00
              0.337549063519657E+00
             -0.687257981273826E-01
              0.325746484801138E+00
              0.423839827098271E+00
             -0.710677149230431E+00
              0.320796132515329E+00
              0.355972164329322E+00
              0.656347899904981E+00
             -0.125227699291219E+00
              0.806165969653856E-01
             -0.829153399096325E-01
             -0.520150052879524E+00
             -0.864279536825713E+00
              0.883462613112857E+00
             -0.124285867416212E+00
             -0.605909795296945E+00
              0.110948889417890E+00
             -0.370555178979492E+00
              0.996051514452728E+00
             -0.275956495056755E+00
             -0.450246582368135E+00
              0.449175238759867E+00
             -0.187036508893693E+00
              0.556183413046393E+00
              0.425925013623010E-01
              0.106778611748420E+01
              0.630495482620067E+00
              0.170580012488725E+00
             -0.474777338772068E+00
              0.342768137196362E+00
             -0.634753480423823E+00
             -0.420934910155519E-01
              0.764073765040271E+00
             -0.293699650545167E+00
             -0.509307788944067E+00
             -0.277281420833481E+00
              0.603355101241146E+00
              0.131937707322836E+00
             -0.945459941307354E+00
              0.407050445455982E+00
              0.510437961490373E-01
              0.139795292610953E+00
             -0.575312610020628E+00
              0.136202086447033E+00
              0.402547604090582E+00
              0.523598835498327E+00
              0.776908340988717E+00
              0.430367606810509E+00
              0.919952017528518E-01
             -0.666711473866811E+00
             -0.486716118331703E+00
             -0.737181755013592E+00
             -0.187004647689090E+00
              0.409505995744028E+00
              0.826011095010237E-03
              0.607052214719814E+00
             -0.373308635727304E+00
              0.200503549459229E+00
             -0.296657922946893E+00
             -0.317573942077627E+00
              0.696786651697656E+00
              0.600128668854625E-01
              0.738143688937332E+00
              0.583660122059433E-01
              0.215831588986516E+00
             -0.192641311574793E+00
              0.705369347994031E+00
             -0.210739068138739E+00
              0.811701330577091E-02
             -0.918194730970900E+00
             -0.737284831224363E-01
              0.812924334715339E+00
              0.739497280881736E+00
              0.302230793614455E+00
             -0.192673224497598E+00
              0.764492425968772E-01
             -0.292413553303033E+00
             -0.263793703916648E+00
              0.105879989096244E+01
              0.108092025089494E+00
             -0.352783101310319E+00
             -0.123293275587487E+01
             -0.473087740346983E+00
             -0.449015619059263E+00
             -0.698289894073706E+00
             -0.704752962476205E+00
             -0.830990875407251E+00
             -0.528836316358458E+00
             -0.303935477401149E+00
             -0.573951229289982E+00
              0.514260779103526E+00
             -0.183052308503888E+00
             -0.945008151807838E+00
              0.479811706390029E+00
             -0.405214570496027E+00
             -0.931441516968212E+00
              0.119147403654785E+01
             -0.311344790930409E+00
              0.158682259590274E+00
              0.426384911629774E+00
              0.188988749818604E+00
              0.320894734549636E+00
              0.999344396306179E-02
              0.170435110826108E-01
             -0.156870709578458E+00
             -0.872211667544096E+00
              0.125752646954949E+00
             -0.139337668779385E+01
              0.878945961763129E+00
             -0.470161009324052E+00
             -0.230114667332165E+00
             -0.255682768027219E+00
              0.282221499165484E+00
             -0.174648052564012E+00
              0.319217671802777E+00
             -0.698093286993291E+00
              0.418821566158162E+00
              0.520677813441492E+00
              0.799418499704589E-01
              0.116793221180257E+00
              0.252672134496587E+00
              0.127220457922245E+00
              0.336586908054512E+00
             -0.419552784725696E-01
             -0.914390200176043E+00
              0.112810509164895E+00
             -0.430345497799085E+00
             -0.404717610052709E-01
              0.677949974897716E+00
             -0.928143035854941E+00
              0.345348067913767E-01
              0.473097185292430E-01
              0.114484282114149E+00
              0.351331838861164E+00
             -0.148129917555599E+00
              0.990264320196752E+00
              0.405856331838353E+00
             -0.159131700411931E+00
             -0.931774021287803E-01
              0.853699385033089E-01
              0.919652060732335E+00
             -0.563123522020959E+00
             -0.118011743670581E+01
              0.345832107738119E+00
             -0.899305801597086E-01
             -0.195354425469107E+00
              0.230952052306786E+00
              0.872982275098720E+00
              0.479935604301362E+00
             -0.199243391417793E+00
             -0.645033336572518E+00
             -0.163141746778835E+00
              0.314649070240680E+00
             -0.223241996835720E+00
             -0.901462441864812E+00
             -0.126771416154745E+00
             -0.116914813188735E+01
             -0.619045164048182E+00
              0.104278139631202E+01
             -0.628115465549818E+00
             -0.850723087765365E+00
             -0.623908400708226E+00
             -0.481648250474737E+00
              0.411218965497558E+00
              0.100878038324349E+01
             -0.136092310837293E+00
              0.308235758276804E+00
             -0.251157908906484E+00
             -0.802133542601063E+00
              0.611985719542009E+00
             -0.576237678443171E+00
              0.272671786056109E+00
              0.313610325337581E+00
             -0.196661839946306E+00
              0.415817793025772E+00
              0.444046573391695E+00
              0.146486136059603E+01
             -0.103841941078699E+00
             -0.694716099013250E+00
             -0.787679264209340E+00
             -0.241968553332372E+00
             -0.528588569664066E+00
              0.107188175765826E+01
             -0.535510478584925E+00
              0.122161371471380E+00
              0.115880618486699E-01
             -0.216989036621674E+00
             -0.102842413479992E+01
             -0.775806789095630E-01
              0.118844579665575E+01
              0.286149846747915E+00
              0.857788415248870E-01
             -0.718089156546276E+00
             -0.634746825749369E+00
             -0.239570835896291E+00
              0.524774141899626E+00
             -0.320983235412763E+00
              0.117524338249200E+01
             -0.583945614643888E+00
              0.234925316689089E+00
             -0.129811246579217E+00
             -0.716128113349080E+00
              0.853217852605486E-01
             -0.678232235019554E+00
             -0.869060683695031E+00
              0.144445149929441E+00
              0.125154164358978E-01
              0.580527896222921E+00
              0.329765419241034E+00
             -0.421617575989907E+00
              0.247107442949096E+00
             -0.106801744876758E+01
             -0.544637232748338E+00
              0.109632970454957E+01
              0.165605516203630E-01
             -0.413132251162862E-01
             -0.272125261371129E+00
             -0.469921070068047E-02
             -0.160470478121264E+00
              0.110771147767089E+01
              0.489928653719541E+00
             -0.846704994273599E-01
              0.272642348313328E-01
             -0.438288934685670E+00
             -0.126282781603633E+00
             -0.718994930802157E+00
              0.620378401820767E+00
              0.816743281189007E-01
              0.791614446437672E-01
              0.236124198579322E+00
             -0.186179876925031E+00
             -0.282676985504840E+00
              0.139204515434407E+00
             -0.134241369666448E+01
             -0.104737871913986E+00
             -0.122705556451741E+00
             -0.680851008855538E-01
              0.549585778026930E+00
              0.775597763660719E+00
              0.219358630222817E+00
             -0.109661070798034E+01
              0.748947704650806E+00
             -0.282227156565452E+00
             -0.434505269072213E+00
             -0.102899151025263E+01
             -0.290695084337360E+00
              0.768778020741342E+00
              0.412479239713328E+00
              0.201221394511665E+00
              0.426217914530504E+00
             -0.667216441068180E+00
             -0.593042859969628E+00
              0.755380313267598E+00
              0.489843576984621E+00
              0.543103530620406E+00
              0.132502795808047E+00
              0.129016481687374E+00
              0.620836148979156E+00
              0.116128105006695E+01
             -0.182393580794841E+00
              0.490206664855060E+00
             -0.392535497941296E+00
             -0.520509658340830E+00
             -0.418751591590171E+00
             -0.410377704053217E+00
             -0.171567932434842E+00
             -0.550613092199513E+00
             -0.216383776036942E+00
             -0.150674321353466E+01
              0.368916020528407E+00
              0.345794425812293E+00
             -0.422177026713592E-01
             -0.428952363138571E+00
             -0.203698025431482E+00
             -0.679026168554840E+00
              0.523956976648972E-01
              0.929772443503020E+00
             -0.220127114710548E+00
             -0.225915206501671E+00
              0.217321459782631E+00
             -0.610870429302627E+00
              0.100251242874727E+01
              0.179226090936518E+00
              0.542138953469724E-01
              0.610473830781511E+00
             -0.905381275715444E-01
              0.702501076939682E+00
              0.250039968481174E+00
             -0.159239735435657E-02
              0.164644306483376E+00
             -0.140164831988273E+00
              0.777861887536640E+00
              0.801843375537796E-01
              0.265589074198511E+00
             -0.102436874375464E+00
              0.126053614657312E+00
             -0.111745297358938E+01
             -0.409971292010272E+00
             -0.598075668897026E+00
              0.582247283829037E+00
             -0.430634333298780E+00
             -0.637438499060307E+00
              0.710103471929511E+00
             -0.163636237476057E+00
              0.478972251470257E+00
             -0.104228550982985E+01
              0.190842369389587E+00
              0.343250945653484E-01
              0.874608429751493E-01
             -0.176690968866000E+00
             -0.717605979227205E-01
              0.598546071539656E+00
              0.302685393288247E-01
             -0.639808888153063E+00
             -0.266503339476171E+00
              0.197023088335525E+00
             -0.135593695918641E+01
             -0.100858672175150E+01
              0.618719800026302E-02
              0.205348682390063E+00
             -0.624606799302935E+00
              0.228213201642848E-01
              0.120041929270868E+01
              0.323580160129458E+00
             -0.632863569846445E+00
              0.872546468986379E-01
             -0.125274115279520E+00
              0.163326794093783E+00
             -0.434347015549791E+00
              0.284237273060111E+00
              0.271381834913401E+00
             -0.107298129519819E+00
              0.134280693889088E+01
             -0.302779596962366E-01
             -0.358713695696523E+00
              0.392137697307311E+00
              0.501966453748852E+00
             -0.366344767694592E+00
             -0.506220107991351E-02
              0.116438676156116E+01
             -0.118961942421167E-01
              0.606892273845611E+00
              0.197905308319654E+00
             -0.718943726880765E-01
             -0.159451661661342E+00
              0.542278034771618E+00
             -0.708825535803618E+00
             -0.204080138934235E-01
             -0.244046590404129E+00
             -0.470389998519550E+00
              0.126910474236920E+00
              0.303359294869710E+00
             -0.429831417299189E-01
             -0.184549213951355E-01
             -0.497351716931598E+00
              0.159709969969365E+00
             -0.732957836337889E-02
             -0.249881924554045E+00
             -0.233161376591295E+00
              0.180113259383698E+00
              0.853239492069946E-02
             -0.463413005368169E+00
             -0.127384162711862E+01
              0.817740242620287E-01
              0.155071885989544E+00
             -0.601024118880555E+00
             -0.311832329284202E+00
              0.976857556534977E+00
              0.170062906489094E+00
              0.546076110513439E+00
              0.144602017060086E+00
              0.486175827201345E+00
              0.256947502388849E-01
             -0.468472365623464E+00
             -0.175765431745576E+00
              0.544317293049290E-01
              0.382032186389162E+00
              0.860792057501283E+00
              0.583395956910520E+00
              0.418958432153480E-01
              0.133981519140029E+00
              0.717853351276153E+00
              0.341910300428639E+00
             -0.802142261777670E+00
             -0.327844109901921E+00
              0.115798471662813E+00
              0.129244109904032E+00
              0.296239478855064E+00
             -0.594984915470907E+00
              0.448279823645931E-01
              0.502315679941583E+00
              0.573218979406107E+00
             -0.496106715355604E+00
              0.562348026649522E-01
             -0.289843751281360E-01
             -0.257141786769770E+00
             -0.273317958171076E+00
             -0.116597605573499E+00
             -0.179374347049598E+00
              0.142512230946570E+00
              0.498125012479771E+00
             -0.385653558971081E+00
              0.958266885377099E+00
              0.388169308295232E+00
              0.320254866778901E+00
              0.450503595084658E+00
              0.270020706026981E+00
              0.433511457318901E+00
              0.657804693394749E+00
             -0.563315533946692E+00
              0.746725791100988E+00
             -0.135373882097691E+01
              0.372510231333675E+00
             -0.124296038694696E+01
              0.946959407311080E+00
              0.935255656984800E+00
             -0.951647681014678E-01
             -0.547624751736626E+00
             -0.517246964430069E+00
             -0.615063349650881E+00
             -0.783749125106710E+00
              0.648004226643755E+00
              0.510029410888106E+00
              0.286415738064832E+00
              0.274819478744678E+00
              0.551587405105795E+00
             -0.492326865133325E+00
             -0.165938858084908E+00
              0.622682548706854E+00
             -0.146437687126746E+00
              0.587666724945582E+00
              0.933899976268358E+00
             -0.458901022266747E-01
             -0.906499043087917E+00
              0.856785299774430E-01
              0.145760249417193E-01
             -0.125420869310043E+00
              0.428107068655335E-01
             -0.763867569453615E+00
             -0.673718078935812E-01
              0.176151759686574E+00
              0.188459767619396E+00
              0.599599951844226E+00
             -0.507600581676376E+00
              0.574861569392715E+00
             -0.444118696775016E+00
              0.337636381661220E+00
              0.529941928608914E+00
 
 BEEF-vdW xc energy contributions
           1 :   -8.10690657556106     
           2 :    6.53473666760637     
           3 :   -4.29789141000786     
           4 :    2.23584752925619     
           5 :  -0.746340246977287     
           6 :  -0.100983305201552     
           7 :   0.416379065546746     
           8 :  -0.411102555527867     
           9 :   0.304285311498214     
          10 :  -0.243775393973504     
          11 :   0.262114974144882     
          12 :  -0.308169506470858     
          13 :   0.313330060057133     
          14 :  -0.249076425650491     
          15 :   0.135152701990382     
          16 :  -1.836719735272219E-002
          17 :  -6.207174337559174E-002
          18 :   9.247716056413857E-002
          19 :  -8.724928312547142E-002
          20 :   7.128648159486772E-002
          21 :  -5.998018816892348E-002
          22 :   4.950728736994847E-002
          23 :  -2.621551946025669E-002
          24 :  -2.117425092997038E-002
          25 :   8.364965279696612E-002
          26 :  -0.129054189065313     
          27 :   0.132913605238741     
          28 :  -0.105382342311062     
          29 :   7.008595544418483E-002
          30 :  -3.745950578033153E-002
          31 :   -1.11112040996973     
          32 :  -0.666980433112869     

     Writing output data file ./pwscf.save/
 
     init_run     :     61.79s CPU     64.06s WALL (       1 calls)
     electrons    :    571.55s CPU    606.21s WALL (       1 calls)
     forces       :     23.16s CPU     25.25s WALL (       1 calls)

     Called by init_run:
     wfcinit      :      1.17s CPU      1.20s WALL (       1 calls)
     potinit      :     53.09s CPU     54.83s WALL (       1 calls)
     hinit0       :      6.18s CPU      6.30s WALL (       1 calls)

     Called by electrons:
     c_bands      :    120.39s CPU    120.43s WALL (      18 calls)
     sum_band     :     35.57s CPU     39.93s WALL (      18 calls)
     v_of_rho     :    325.12s CPU    350.99s WALL (      19 calls)
     newd         :     14.96s CPU     19.39s WALL (      19 calls)
     PAW_pot      :      1.65s CPU      1.65s WALL (      19 calls)
     mix_rho      :    121.75s CPU    123.62s WALL (      18 calls)
     vdW_kernel   :     33.64s CPU     33.64s WALL (       1 calls)

     Called by c_bands:
     init_us_2    :      1.16s CPU      1.18s WALL (      37 calls)
     rcgdiagg     :    101.97s CPU    102.00s WALL (      18 calls)
     wfcrot       :     18.88s CPU     18.89s WALL (      18 calls)

     Called by *cgdiagg:
     h_psi        :    108.51s CPU    108.52s WALL (     440 calls)
     s_psi        :      4.92s CPU      4.93s WALL (     862 calls)

     Called by h_psi:
     h_psi:calbec :      2.72s CPU      2.72s WALL (     440 calls)
     vloc_psi     :    102.69s CPU    102.69s WALL (     440 calls)
     add_vuspsi   :      2.73s CPU      2.73s WALL (     440 calls)
     hs_1psi      :     93.12s CPU     93.13s WALL (     422 calls)
     s_1psi       :      4.93s CPU      4.94s WALL (     422 calls)

     General routines
     calbec       :      5.25s CPU      5.25s WALL (     884 calls)
     fft          :    259.80s CPU    259.82s WALL (    3050 calls)
     ffts         :     52.09s CPU     52.09s WALL (     639 calls)
     fftw         :     93.09s CPU     93.09s WALL (    1114 calls)
 
     Parallel routines
 
     PWSCF        :  18m51.92s CPU  20m26.12s WALL

 
   This run was terminated on:  16:40:12  20Dec2022            

=------------------------------------------------------------------------------=
   JOB DONE.
=------------------------------------------------------------------------------=
