
     Program PWSCF v.6.7MaX starts on  3Jan2023 at 23: 4:21 

     This program is part of the open-source Quantum ESPRESSO suite
     for quantum simulation of materials; please cite
         "P. Giannozzi et al., J. Phys.:Condens. Matter 21 395502 (2009);
         "P. Giannozzi et al., J. Phys.:Condens. Matter 29 465901 (2017);
          URL http://www.quantum-espresso.org", 
     in publications or presentations arising from this work. More details at
     http://www.quantum-espresso.org/quote

     Parallel version (MPI), running on     1 processors

     MPI processes distributed on     1 nodes
     Reading input from chcch-gas-ensemble.in
Warning: card &CELL ignored
Warning: card / ignored

     Current dimensions of program PWSCF are:
     Max number of different atomic species (ntypx) = 10
     Max number of k-points (npk) =  40000
     Max angular momentum in pseudopotentials (lmaxx) =  3
     file C.pbe-n-kjpaw_psl.1.0.0.UPF: wavefunction(s)  2S 2P renormalized
     file H.pbe-kjpaw_psl.1.0.0.UPF: wavefunction(s)  1S renormalized

     **************************************************************************
     Initializing libbeef V0.1.2 with the BEEF-vdW functional.
     Citation: Wellendorff et al., PRB 85, 235149 (2012).
     **************************************************************************


     IMPORTANT: XC functional enforced from input :
     Exchange-correlation= BEEF-VDW
                           (   1   4  43  14   2   0   0)
     Any further DFT definition will be discarded
     Please, verify this is what you really want


     gamma-point specific algorithms are used

     Subspace diagonalization in iterative solution of the eigenvalue problem:
     a serial algorithm will be used

 
     G-vector sticks info
     --------------------
     sticks:   dense  smooth     PW     G-vecs:    dense   smooth      PW
     Sum       34555   34555   8645              4458735  4458735  557317
 


     bravais-lattice index     =            0
     lattice parameter (alat)  =      40.0010  a.u.
     unit-cell volume          =   71014.9150 (a.u.)^3
     number of atoms/cell      =            5
     number of atomic types    =            2
     number of electrons       =        14.00
     number of Kohn-Sham states=           11
     kinetic-energy cutoff     =      60.0000  Ry
     charge density cutoff     =     240.0000  Ry
     scf convergence threshold =      1.0E-06
     mixing beta               =       0.7000
     number of iterations used =            8  local-TF  mixing
     Exchange-correlation= BEEF-VDW
                           (   1   4  43  14   2   0   0)

     celldm(1)=  40.001042  celldm(2)=   0.000000  celldm(3)=   0.000000
     celldm(4)=   0.000000  celldm(5)=   0.000000  celldm(6)=   0.000000

     crystal axes: (cart. coord. in units of alat)
               a(1) = (   1.000000   0.000000   0.000000 )  
               a(2) = (   0.000000   1.130883   0.000000 )  
               a(3) = (   0.000000   0.000000   0.981111 )  

     reciprocal axes: (cart. coord. in units 2 pi/alat)
               b(1) = (  1.000000  0.000000  0.000000 )  
               b(2) = (  0.000000  0.884265  0.000000 )  
               b(3) = (  0.000000  0.000000  1.019253 )  


     PseudoPot. # 1 for C  read from file:
     /users/bkreitz1/quantum-espresso/potentials/C.pbe-n-kjpaw_psl.1.0.0.UPF
     MD5 check sum: a169b0ebad56f5ec0d79c4633f80bf22
     Pseudo is Projector augmented-wave + core cor, Zval =  4.0
     Generated using 'atomic' code by A. Dal Corso  v.6.7MaX
     Shape of augmentation charge: PSQ
     Using radial grid of 1073 points,  4 beta functions with: 
                l(1) =   0
                l(2) =   0
                l(3) =   1
                l(4) =   1
     Q(r) pseudized with 0 coefficients 


     PseudoPot. # 2 for H  read from file:
     /users/bkreitz1/quantum-espresso/potentials/H.pbe-kjpaw_psl.1.0.0.UPF
     MD5 check sum: ae98473e6dc62675f0d0baffdab24f65
     Pseudo is Projector augmented-wave, Zval =  1.0
     Generated using 'atomic' code by A. Dal Corso  v.6.7MaX
     Shape of augmentation charge: PSQ
     Using radial grid of  929 points,  2 beta functions with: 
                l(1) =   0
                l(2) =   0
     Q(r) pseudized with 0 coefficients 


     atomic species   valence    mass     pseudopotential
        C              4.00    12.01100     C ( 1.00)
        H              1.00     1.00800     H ( 1.00)

     No symmetry found



   Cartesian axes

     site n.     atom                  positions (alat units)
         1           C   tau(   1) = (   0.4829300   0.5072814   0.4727527  )
         2           C   tau(   2) = (   0.5002222   0.5652936   0.4822062  )
         3           C   tau(   3) = (   0.5172450   0.6233134   0.4723625  )
         4           H   tau(   4) = (   0.4724287   0.4724171   0.5087053  )
         5           H   tau(   5) = (   0.5275709   0.6584689   0.5085672  )

     number of k points=     1  Gaussian smearing, width (Ry)=  0.0050
                       cart. coord. in units 2pi/alat
        k(    1) = (   0.0000000   0.0000000   0.0000000), wk =   2.0000000

     Dense  grid:  2229368 G-vectors     FFT dimensions: ( 200, 225, 200)

     Estimated max dynamical RAM per process >       3.42 GB

     Initial potential from superposition of free atoms

     starting charge   13.99986, renormalised to   14.00000

     negative rho (up, down):  8.923E-03 0.000E+00


     %%%%%%%%%%%%%%%%%%%%%%%%%%%%%%%%%%%%%%%%%%%%%%%%%%%%%%%%%%%%%%%%%%%%%%%%
     %                                                                      %
     % You are using vdW-DF, which was implemented by the Thonhauser group. %
     % Please cite the following two papers that made this development      %
     % possible and the two reviews that describe the various versions:     %
     %                                                                      %
     %   T. Thonhauser et al., PRL 115, 136402 (2015).                      %
     %   T. Thonhauser et al., PRB 76, 125112 (2007).                       %
     %   K. Berland et al., Rep. Prog. Phys. 78, 066501 (2015).             %
     %   D.C. Langreth et al., J. Phys.: Condens. Matter 21, 084203 (2009). %
     %                                                                      %
     %                                                                      %
     % If you are calculating the stress with vdW-DF, please also cite:     %
     %                                                                      %
     %   R. Sabatini et al., J. Phys.: Condens. Matter 24, 424209 (2012).   %
     %                                                                      %
     %%%%%%%%%%%%%%%%%%%%%%%%%%%%%%%%%%%%%%%%%%%%%%%%%%%%%%%%%%%%%%%%%%%%%%%%


     Starting wfcs are   14 randomized atomic wfcs
     Checking if some PAW data can be deallocated... 

     total cpu time spent up to now is       66.9 secs

     Self-consistent Calculation

     iteration #  1     ecut=    60.00 Ry     beta= 0.70
     Davidson diagonalization with overlap
     ethr =  1.00E-02,  avg # of iterations =  5.0

     negative rho (up, down):  7.427E-03 0.000E+00

     total cpu time spent up to now is      100.7 secs

     total energy              =     -59.06366217 Ry
     estimated scf accuracy    <       0.56384737 Ry

     iteration #  2     ecut=    60.00 Ry     beta= 0.70
     Davidson diagonalization with overlap
     ethr =  4.03E-03,  avg # of iterations =  1.0

     negative rho (up, down):  5.094E-03 0.000E+00

     total cpu time spent up to now is      132.9 secs

     total energy              =     -58.98955669 Ry
     estimated scf accuracy    <       0.16310079 Ry

     iteration #  3     ecut=    60.00 Ry     beta= 0.70
     Davidson diagonalization with overlap
     ethr =  1.17E-03,  avg # of iterations =  5.0

     negative rho (up, down):  4.635E-03 0.000E+00

     total cpu time spent up to now is      167.4 secs

     total energy              =     -59.01702748 Ry
     estimated scf accuracy    <       0.01914453 Ry

     iteration #  4     ecut=    60.00 Ry     beta= 0.70
     Davidson diagonalization with overlap
     ethr =  1.37E-04,  avg # of iterations =  7.0

     negative rho (up, down):  3.374E-02 0.000E+00

     total cpu time spent up to now is      202.5 secs

     total energy              =     -59.01498039 Ry
     estimated scf accuracy    <       0.01007409 Ry

     iteration #  5     ecut=    60.00 Ry     beta= 0.70
     Davidson diagonalization with overlap
     ethr =  7.20E-05,  avg # of iterations =  5.0

     negative rho (up, down):  4.515E-02 0.000E+00

     total cpu time spent up to now is      237.3 secs

     total energy              =     -59.01437249 Ry
     estimated scf accuracy    <       0.00511405 Ry

     iteration #  6     ecut=    60.00 Ry     beta= 0.70
     Davidson diagonalization with overlap
     ethr =  3.65E-05,  avg # of iterations =  5.0

     negative rho (up, down):  9.635E-02 0.000E+00

     total cpu time spent up to now is      271.8 secs

     total energy              =     -59.01540581 Ry
     estimated scf accuracy    <       0.00205899 Ry

     iteration #  7     ecut=    60.00 Ry     beta= 0.70
     Davidson diagonalization with overlap
     ethr =  1.47E-05,  avg # of iterations =  8.0

     negative rho (up, down):  8.018E-02 0.000E+00

     total cpu time spent up to now is      308.1 secs

     total energy              =     -59.01488685 Ry
     estimated scf accuracy    <       0.00095878 Ry

     iteration #  8     ecut=    60.00 Ry     beta= 0.70
     Davidson diagonalization with overlap
     ethr =  6.85E-06,  avg # of iterations =  6.0

     negative rho (up, down):  6.480E-02 0.000E+00

     total cpu time spent up to now is      342.2 secs

     total energy              =     -59.01451133 Ry
     estimated scf accuracy    <       0.00030617 Ry

     iteration #  9     ecut=    60.00 Ry     beta= 0.70
     Davidson diagonalization with overlap
     ethr =  2.19E-06,  avg # of iterations = 10.0

     negative rho (up, down):  4.613E-02 0.000E+00

     total cpu time spent up to now is      378.0 secs

     total energy              =     -59.01413194 Ry
     estimated scf accuracy    <       0.00028206 Ry

     iteration # 10     ecut=    60.00 Ry     beta= 0.70
     Davidson diagonalization with overlap
     c_bands:  1 eigenvalues not converged
     ethr =  2.01E-06,  avg # of iterations = 20.0

     negative rho (up, down):  3.983E-02 0.000E+00

     total cpu time spent up to now is      416.1 secs

     total energy              =     -59.01411424 Ry
     estimated scf accuracy    <       0.00006603 Ry

     iteration # 11     ecut=    60.00 Ry     beta= 0.70
     Davidson diagonalization with overlap
     ethr =  4.72E-07,  avg # of iterations =  8.0

     negative rho (up, down):  2.744E-02 0.000E+00

     total cpu time spent up to now is      450.5 secs

     total energy              =     -59.01411901 Ry
     estimated scf accuracy    <       0.00003992 Ry

     iteration # 12     ecut=    60.00 Ry     beta= 0.70
     Davidson diagonalization with overlap
     ethr =  2.85E-07,  avg # of iterations =  5.0

     negative rho (up, down):  2.233E-02 0.000E+00

     total cpu time spent up to now is      483.6 secs

     total energy              =     -59.01413214 Ry
     estimated scf accuracy    <       0.00001982 Ry

     iteration # 13     ecut=    60.00 Ry     beta= 0.70
     Davidson diagonalization with overlap
     ethr =  1.42E-07,  avg # of iterations =  2.0

     negative rho (up, down):  1.941E-02 0.000E+00

     total cpu time spent up to now is      516.7 secs

     total energy              =     -59.01413858 Ry
     estimated scf accuracy    <       0.00001152 Ry

     iteration # 14     ecut=    60.00 Ry     beta= 0.70
     Davidson diagonalization with overlap
     ethr =  8.23E-08,  avg # of iterations =  1.0

     negative rho (up, down):  1.704E-02 0.000E+00

     total cpu time spent up to now is      548.5 secs

     total energy              =     -59.01414439 Ry
     estimated scf accuracy    <       0.00000305 Ry

     iteration # 15     ecut=    60.00 Ry     beta= 0.70
     Davidson diagonalization with overlap
     ethr =  2.18E-08,  avg # of iterations =  2.0

     negative rho (up, down):  1.571E-02 0.000E+00

     total cpu time spent up to now is      573.2 secs

     End of self-consistent calculation

          k = 0.0000 0.0000 0.0000 (278659 PWs)   bands (ev):

   -20.5500 -17.9405 -13.4351 -11.8652  -8.9099  -8.6528  -5.7791  -4.9461
    -1.6345  -0.9392  -0.4084

     the Fermi energy is    -5.3758 ev

!    total energy              =     -59.01414382 Ry

     total all-electron energy =      -232.306426 Ry
     estimated scf accuracy    <       0.00000097 Ry
     smearing contrib. (-TS)   =      -0.00000000 Ry
     internal energy E=F+TS    =     -59.01414382 Ry

     The total energy is F=E-TS. E is the sum of the following terms:
     one-electron contribution =    -118.80052802 Ry
     hartree contribution      =      61.02035497 Ry
     xc contribution           =     -15.48962033 Ry
     ewald contribution        =      33.92701802 Ry
     one-center paw contrib.   =     -19.67136846 Ry

     convergence has been achieved in  15 iterations

     negative rho (up, down):  1.571E-02 0.000E+00

     Forces acting on atoms (cartesian axes, Ry/au):

     atom    1 type  1   force =     0.00096588    0.00141678    0.00114307
     atom    2 type  1   force =    -0.00087145   -0.00207530   -0.00198293
     atom    3 type  1   force =     0.00171609    0.00663029    0.00729497
     atom    4 type  2   force =     0.00013695    0.00020552   -0.00007781
     atom    5 type  2   force =    -0.00194746   -0.00617728   -0.00637731

     Total force =     0.014002     Total SCF correction =     0.000167

     negative rho (up, down):  1.571E-02 0.000E+00

     negative rho (up, down):  1.571E-02 0.000E+00

     negative rho (up, down):  1.571E-02 0.000E+00

     negative rho (up, down):  1.571E-02 0.000E+00

     negative rho (up, down):  1.571E-02 0.000E+00

     negative rho (up, down):  1.571E-02 0.000E+00

     negative rho (up, down):  1.571E-02 0.000E+00

     negative rho (up, down):  1.571E-02 0.000E+00

     negative rho (up, down):  1.571E-02 0.000E+00

     negative rho (up, down):  1.571E-02 0.000E+00

     negative rho (up, down):  1.571E-02 0.000E+00

     negative rho (up, down):  1.571E-02 0.000E+00

     negative rho (up, down):  1.571E-02 0.000E+00

     negative rho (up, down):  1.571E-02 0.000E+00

     negative rho (up, down):  1.571E-02 0.000E+00

     negative rho (up, down):  1.571E-02 0.000E+00

     negative rho (up, down):  1.571E-02 0.000E+00

     negative rho (up, down):  1.571E-02 0.000E+00

     negative rho (up, down):  1.571E-02 0.000E+00

     negative rho (up, down):  1.571E-02 0.000E+00

     negative rho (up, down):  1.571E-02 0.000E+00

     negative rho (up, down):  1.571E-02 0.000E+00

     negative rho (up, down):  1.571E-02 0.000E+00

     negative rho (up, down):  1.571E-02 0.000E+00

     negative rho (up, down):  1.571E-02 0.000E+00

     negative rho (up, down):  1.571E-02 0.000E+00

     negative rho (up, down):  1.571E-02 0.000E+00

     negative rho (up, down):  1.571E-02 0.000E+00

     negative rho (up, down):  1.571E-02 0.000E+00

     negative rho (up, down):  1.571E-02 0.000E+00

     negative rho (up, down):  1.571E-02 0.000E+00

     negative rho (up, down):  1.571E-02 0.000E+00

     negative rho (up, down):  1.571E-02 0.000E+00

     negative rho (up, down):  1.571E-02 0.000E+00
 BEEFens 2000 ensemble energies
             -0.119652049523595E+01
             -0.404522639642622E-01
             -0.230161509589093E+00
              0.800485346683125E+00
             -0.379161498871153E+00
             -0.267912972966785E+00
             -0.894172896478553E+00
             -0.179079028234660E+01
             -0.584661518782263E+00
             -0.628091191407547E+00
             -0.664694504772780E+00
              0.137819249045858E+00
              0.718506467402351E-01
             -0.126934185409997E+00
              0.715221744092740E-01
              0.854446699449280E+00
             -0.340620421620465E+00
             -0.128572689034553E+00
              0.456563404734233E+00
             -0.200726094702221E+01
              0.103285312874760E+01
             -0.318501597081507E+00
             -0.111076993296431E+00
             -0.148263500217889E+00
              0.819149424113448E-01
             -0.731049436934428E-01
              0.159321347057825E+01
             -0.456949689472967E+00
             -0.131910768646769E+00
             -0.104293418349154E+01
              0.119203906088482E+01
             -0.244863749826907E-01
             -0.757529387895254E+00
              0.300211768714222E+00
             -0.494040614122966E-01
              0.571532113934435E+00
              0.576279043393395E-01
             -0.366407067587704E-01
              0.738373536823910E+00
             -0.178275546313116E+01
              0.992467036648295E+00
              0.221644083586743E+00
             -0.264661721809926E+00
             -0.521507671267338E+00
              0.219989686578454E+00
             -0.344721154237013E+00
              0.942931780535281E+00
              0.632834128136274E+00
             -0.300521276265185E+00
             -0.593589346475213E+00
             -0.565870162902799E+00
             -0.690290861981514E+00
              0.450407758745022E+00
             -0.952294745588691E+00
              0.309129216118837E+00
              0.112279333013694E+01
              0.141085142945933E+01
              0.571202862462924E+00
              0.290843726829067E+00
              0.613589420587365E+00
              0.166281082123472E+01
              0.267960089922338E+00
             -0.994008701588796E+00
             -0.153106205514642E+00
             -0.552514349520957E+00
              0.112480509937067E+01
             -0.127708224951322E+01
             -0.106109764150315E+01
             -0.649304931576368E+00
             -0.412297689966831E+00
             -0.672087731936887E+00
              0.506328055123904E+00
              0.251139870117504E+00
              0.307765280314485E+00
             -0.701020146868217E+00
             -0.644732167166016E+00
             -0.108936776454027E+01
              0.533454956362991E+00
             -0.641196687811500E+00
              0.607371701387974E+00
             -0.166956344839218E+00
             -0.495207545801029E+00
             -0.873055328266524E+00
             -0.261946593236365E+00
             -0.321250207004301E+00
             -0.253352924757141E+00
              0.700634268316774E+00
              0.146451639494243E+01
             -0.854665270511418E+00
             -0.143583101526438E+01
             -0.327967884533291E+00
              0.195880767323213E+01
             -0.101590619066669E+01
              0.548024340666298E+00
             -0.224318435377564E+00
             -0.105017866378513E+01
              0.503395853865546E+00
              0.516618624621901E+00
             -0.267393898175246E+00
              0.495418225206187E+00
             -0.435916849712417E+00
             -0.116242206116320E+01
              0.187464367582185E+01
              0.824105945246176E+00
              0.339035640640527E+00
              0.231499610749682E+00
              0.450562824320508E+00
              0.146864858914866E+01
             -0.486001308868255E+00
              0.399980201982764E-01
             -0.249690947883134E+01
              0.297221156292879E+00
             -0.118576639882347E+01
              0.221637486951145E+00
              0.394485297604216E+00
             -0.694927251905829E+00
             -0.886849564157220E+00
              0.290830744082218E-01
             -0.571413778665521E+00
              0.838863600329235E+00
             -0.811150360240497E+00
             -0.185341575267618E+00
             -0.704843854581487E+00
             -0.629423330977890E-01
              0.125263902833515E+00
              0.455062531610838E+00
             -0.121108337929670E-01
             -0.105706586802127E+00
              0.124565289625466E+01
              0.167658164988699E+01
              0.908180029335429E+00
              0.111696520639291E+01
             -0.243451459209143E+00
              0.127688503877568E+00
              0.921336123109641E+00
              0.153960156652893E+00
             -0.138868533258965E+01
             -0.827362539276008E+00
             -0.883771594769224E+00
             -0.534492731041364E+00
              0.456019572078863E+00
             -0.222769341507264E+01
             -0.203713387351047E+00
              0.863098308128277E+00
             -0.736964792618944E+00
             -0.494070407470838E+00
              0.109273849112695E+01
              0.903958065951490E+00
             -0.496418684057137E+00
              0.671096042221615E+00
             -0.456059641181320E+00
              0.688717210601099E+00
              0.122096356529037E+00
              0.161333504015111E+00
             -0.146618060990894E+01
             -0.866211936931429E+00
             -0.157535124688339E+00
             -0.762924088312728E-01
             -0.791262897295566E+00
              0.204228588489596E+01
             -0.169161407296578E+00
             -0.464219022310175E+00
              0.693238274256135E+00
             -0.788566435366518E+00
             -0.708410340531942E+00
              0.614719575683589E+00
              0.233986399647484E+00
              0.201483066353504E+00
              0.325749047388243E+00
             -0.190665485691732E+00
              0.142682904385131E+00
              0.105445843865661E+01
             -0.465160747477342E+00
              0.421196961116814E+00
              0.160549202978723E+01
              0.570361381549009E+00
             -0.621286302062547E-01
             -0.389520224457118E+00
              0.283403121733751E+01
             -0.482830604935534E+00
              0.730324734785020E+00
              0.593700765345048E+00
              0.464788266533259E+00
              0.168817953043024E+01
              0.817515602655636E+00
             -0.973834794447511E-01
              0.475639340131311E+00
              0.960973739520277E+00
              0.690443340207664E+00
             -0.113126740840223E+01
              0.172528874709595E+01
             -0.155919144043782E+01
             -0.155069619304778E+00
              0.100719404833502E+01
              0.368553019627136E+00
              0.110619916554494E+00
              0.463565306479043E+00
              0.254554010009866E+00
              0.575463682550208E+00
             -0.113083572619379E+01
              0.583118586810905E-01
             -0.411628724385537E+00
             -0.880429355314145E-01
             -0.698051154880392E-01
             -0.254693115894612E+00
             -0.123515238181606E+00
              0.150454157157163E+01
             -0.844034758393781E-01
             -0.514315802015390E+00
             -0.144233388298470E-01
              0.268553259758339E+00
             -0.118430165017527E+01
             -0.107332501069106E+01
             -0.609470827648120E+00
             -0.114043707421629E+01
             -0.350448715310063E+00
             -0.721628061790194E+00
              0.320962988922818E+00
              0.623100405484247E-01
             -0.243048846684090E+00
             -0.137883613965473E+00
              0.789874197022953E-01
             -0.191728825853350E+00
              0.118644780070363E+01
             -0.162115677121148E+01
             -0.241247642203398E+00
             -0.230544991626293E+00
              0.273516949834230E+00
              0.425310381862362E+00
             -0.947710657667741E+00
             -0.189785720254117E+00
              0.816713697081236E+00
             -0.332243777900346E+00
              0.241225335428695E+00
              0.592189020632207E+00
             -0.635470982686481E-02
              0.208322459749525E+01
             -0.147555054222225E+00
             -0.614674205992934E+00
             -0.195610030110247E-01
             -0.525968142061423E+00
              0.100179177058147E+01
             -0.933532701040473E+00
              0.273323195430605E+00
              0.850160264958701E+00
             -0.225430182135071E+00
              0.213302839506474E+01
              0.231332099290930E+01
             -0.128976580452919E+01
              0.104321326095850E+01
              0.466882586088464E+00
             -0.104004863218814E+01
              0.300612150101115E+00
              0.815090524942031E+00
              0.887373268516607E+00
              0.872704793686458E-01
              0.358529947115876E+00
              0.138670183770703E+01
             -0.422620138706216E+00
              0.156572571009070E+00
              0.119579219018043E+01
             -0.654431754491659E+00
             -0.485204966614112E+00
              0.110941447043051E+01
              0.568421989967553E+00
              0.138702337747215E+01
              0.664773869098308E+00
              0.274613617324542E+00
              0.447744184058728E+00
              0.791521616243625E+00
             -0.100107730163468E+01
              0.164350991117289E+00
              0.564323164609647E+00
              0.201361418356495E+00
              0.457214901023068E+00
             -0.114690608681988E+01
              0.566342297151213E+00
             -0.779577055498239E+00
             -0.562395046996053E+00
              0.378376741365213E+00
             -0.130599249391195E+00
              0.111510031214145E+01
             -0.190256113156628E+00
              0.538861179089005E+00
              0.535885109440489E+00
              0.138274486181189E+01
              0.938334287332486E+00
              0.946178997718884E+00
              0.653662697107382E-02
             -0.234196568698469E+00
             -0.530269875404807E+00
              0.152279217158597E+01
              0.151146147552510E+01
              0.728058129853276E+00
             -0.544159638491302E+00
              0.890296182678496E+00
              0.538650845101394E-01
              0.275589375928051E+00
              0.129544037034012E+01
             -0.571122383268947E-01
             -0.184676019400034E+00
             -0.343598955850121E+00
             -0.116155665700714E+01
              0.175177005483758E+01
              0.976332499049594E+00
             -0.120598166427589E+01
             -0.420801764037036E+00
              0.448557984884573E+00
             -0.180589804942370E+00
              0.121739098746464E+01
              0.271557185404039E+00
              0.149107921676999E+01
              0.586070345333566E+00
             -0.390181827931161E+00
              0.294823513194298E+00
             -0.135275808603378E+00
             -0.430751462240741E+00
              0.309467250569075E+00
              0.261538139888021E+00
              0.165913699616964E+01
              0.138416512620969E+01
              0.105933474786980E+01
              0.119525327231949E+01
              0.125871816197976E+00
             -0.451650880451513E+00
              0.240264209168446E+00
             -0.595897253583006E+00
             -0.106256874497271E+01
             -0.101228112153490E+01
             -0.601271560921616E+00
             -0.197000930569862E+01
             -0.708586394760912E+00
             -0.159110122104486E+01
              0.390529189227330E+00
             -0.813840592167481E+00
              0.971865085026149E+00
             -0.183190908475190E+01
             -0.532074451613695E+00
              0.647132354837041E+00
              0.393532550426541E+00
             -0.167950971703208E+01
              0.932067765391716E+00
             -0.524666017736676E+00
              0.102168694934289E+01
             -0.482753281603792E+00
             -0.143495839424983E+01
              0.337930654559840E+00
             -0.121742608232447E+01
             -0.153158735850618E-01
             -0.457991523187349E-01
              0.743391227126692E+00
              0.229829994445959E+01
             -0.768045016525527E+00
             -0.680957264144056E+00
             -0.142792241958694E+00
             -0.125074290038747E+00
             -0.145346093083064E+01
             -0.102252706353020E+01
              0.886989430499954E+00
             -0.300014903368790E+00
              0.438335608640799E+00
             -0.902040149445557E+00
             -0.309559170446306E+00
             -0.756814703289250E+00
              0.865646820800158E+00
              0.200517370215330E+00
             -0.449314225216425E+00
             -0.359197350470480E+00
              0.263473578179432E+00
             -0.138004359353492E+00
              0.724929421944412E+00
             -0.486780445899802E+00
              0.244336626262195E+00
              0.623145851695579E+00
              0.209360646946962E+00
             -0.465833800969215E+00
              0.281713577118968E+01
              0.111631715448926E+01
              0.198365383067874E+00
              0.103293056033037E+00
             -0.110646809649374E+01
              0.615053687267333E+00
             -0.144717295961227E+01
             -0.647941101742202E+00
             -0.110610767243443E+01
             -0.330965744376686E+00
              0.108449078850186E+01
             -0.106359224111594E+01
              0.523262523579685E+00
             -0.831360532418826E-01
              0.162795168831393E-01
             -0.550203473196103E+00
             -0.741676450072022E+00
             -0.147423946102229E+00
             -0.554808736252496E+00
             -0.392700774886725E+00
             -0.730568453861398E+00
             -0.802717957441584E-01
             -0.576782576770180E+00
             -0.875758342899505E+00
              0.374665901364364E+00
             -0.194647242503497E+00
              0.457336808102530E+00
              0.141250501249592E+00
             -0.138913298959372E+01
             -0.906852941884976E+00
             -0.951048587296790E+00
              0.560438681866170E+00
             -0.142541759305735E+00
             -0.111534146408298E+01
              0.103507666116000E+01
             -0.774244011940365E+00
              0.109815177159411E+01
             -0.578735978272060E+00
             -0.898859886549654E+00
              0.434066314714688E+00
             -0.133817463618696E+01
             -0.552342132509843E+00
              0.104410484444068E+01
              0.372351055124719E+00
             -0.827505547577569E+00
              0.103693562814303E+01
             -0.292885777893899E+00
             -0.687379712703054E+00
             -0.544457954223159E+00
             -0.961931709271067E+00
              0.482355758475029E+00
             -0.157377769866677E+01
             -0.136865235886306E+01
             -0.140864862073095E+00
             -0.522715595689569E+00
             -0.112337183199535E+01
              0.141440952754283E+01
              0.253635418464780E+01
             -0.349751446293070E+00
             -0.767877507187977E-01
             -0.108551591954623E+01
              0.121138238494768E+01
              0.411565203897875E+00
             -0.401059349071552E+00
             -0.643946440507111E+00
              0.260146626426901E+00
             -0.107932740708557E+01
             -0.186950620421465E+00
             -0.155623100124832E+01
              0.626426788256325E+00
              0.184394090480314E+00
             -0.121348282936198E+00
             -0.238754655648663E+00
             -0.806591414162751E+00
             -0.258799659464446E+00
              0.252663183747621E+01
             -0.274842806616455E+00
             -0.901494169197864E+00
             -0.127611927697995E+01
              0.261368710007780E+00
             -0.717623757063566E+00
              0.199353474994248E+00
              0.624811802468989E+00
              0.844689257865152E-01
              0.674614982946602E+00
              0.350859796232935E+00
              0.106520526713308E+01
              0.421272825844762E+00
             -0.677509153870032E+00
              0.104108395213155E+01
              0.621715296932575E+00
              0.231843798067564E+00
              0.654673941465833E+00
             -0.609663769630009E+00
              0.130825008894338E+01
              0.510908357284019E+00
             -0.652358574116597E+00
             -0.973207335609904E-01
             -0.294340273513108E+00
              0.256872560586937E+00
             -0.447675037673142E+00
             -0.255136793428409E+00
             -0.247608420439541E+00
              0.147737832443523E+01
              0.108255512709235E+01
             -0.115273353379034E+01
             -0.170584999458065E+00
             -0.899788775703669E+00
             -0.230619224394510E+00
             -0.380463450964742E+00
              0.222091130513646E+00
             -0.598546135933654E-01
             -0.537841739950405E+00
              0.343521862006387E+00
             -0.180273617439176E+00
             -0.115251933609935E+00
              0.159843870610133E+01
              0.256420322143663E+00
             -0.153398995151288E+01
             -0.672529709287199E+00
              0.177007061745382E+01
              0.427819018921420E+00
             -0.152808134542038E+00
              0.201595178154679E+01
             -0.288914232465245E+00
             -0.128527200180832E+00
             -0.237033321110017E+00
              0.300733098989596E+00
              0.629465078988602E+00
              0.435215523480756E-01
              0.521626838006533E+00
             -0.181175871757133E+00
             -0.762099859178078E+00
             -0.713868732623451E+00
             -0.882639682281342E+00
              0.725056768812164E+00
              0.269285062026508E+00
              0.692445854002840E+00
              0.296393135146732E+00
              0.166312447733917E+01
              0.387318380609878E+00
             -0.140143849734195E+01
             -0.603879752287257E+00
              0.271377767468870E-01
             -0.516528949421985E+00
              0.117978826569148E+01
             -0.298666146983138E+00
              0.313904878661748E+00
              0.103449470682972E+01
             -0.150093594464853E+01
              0.270584049444391E+01
              0.359906636004755E+00
              0.440255146660871E+00
              0.704254591953587E+00
              0.515696545715452E-01
             -0.320278930810387E-01
              0.588599117354352E+00
             -0.645883024648251E+00
              0.160965656935554E+01
              0.140291379004107E+01
             -0.714449497640366E+00
              0.313619750494620E+00
              0.133380220847878E+01
             -0.391819351801769E+00
              0.393503496972985E+00
              0.575965123757426E+00
              0.747981815686130E+00
             -0.135369009640270E+01
             -0.821716970999677E-01
             -0.464472939274040E+00
             -0.116227059630537E+00
             -0.137654404595544E+00
              0.153882975162761E+00
             -0.210612005480345E+00
             -0.565996769384505E+00
              0.329062114047147E+00
              0.925908859810733E-01
              0.973507700456445E+00
             -0.868321285047122E+00
              0.866224579878217E+00
              0.940538492217005E+00
             -0.142712150887669E+00
              0.134255679322873E+01
             -0.123235242046315E+01
             -0.189175600683492E+01
             -0.157779847746009E+00
             -0.125993316332751E+00
             -0.186671925250472E-01
              0.143206061136719E+01
             -0.105330420786087E-03
              0.784294646955389E+00
              0.113408836168139E+01
              0.713276010766851E+00
             -0.120141471767575E+00
              0.107479820963505E+01
             -0.303929081336328E+00
             -0.736639475158311E+00
             -0.626127817733877E+00
              0.212292245884732E+00
              0.632860285981444E+00
             -0.367752031556585E-01
              0.605541066972160E+00
              0.182469596247539E-01
              0.998526352728700E+00
              0.285528202955953E+00
              0.140648090888907E+00
              0.404074409471917E-01
              0.528919958726360E+00
              0.750063473521235E+00
              0.254304619568457E+00
             -0.702804350524540E-01
             -0.100618512524578E+01
              0.552586413421750E+00
              0.386434762767822E+00
              0.595876450622433E+00
              0.545384817129405E+00
              0.669459414093853E+00
             -0.180565086825103E+00
              0.649609131712444E+00
             -0.541917477596964E+00
             -0.334111487429443E-01
             -0.960131087347488E+00
             -0.641155460887195E+00
              0.804733763450304E+00
             -0.160808353358559E+01
              0.422905370423289E+00
              0.254662725469789E+00
              0.158669714417508E+01
             -0.198139764874574E+00
              0.610713262300386E+00
             -0.199638327471202E+00
             -0.910390073965757E+00
             -0.118577909204684E+01
             -0.296948737709614E+00
             -0.167391488324402E+01
              0.123720853719378E+00
             -0.376000774674245E+00
              0.604330299999662E+00
              0.456498303954527E+00
             -0.542668085492462E+00
             -0.569769288000698E+00
              0.789868123350734E+00
             -0.105962842288892E+01
             -0.253144942218179E+00
             -0.290976791196254E+00
              0.522607968970733E+00
              0.125133408437333E+00
              0.599247952578756E-01
             -0.263771079952568E+00
              0.975168496711548E+00
             -0.113547137247151E+01
              0.115556106533637E+00
              0.110905179201556E+01
             -0.686748671615177E+00
              0.748690982743314E-01
              0.593845754899274E-01
             -0.117828744233761E+01
             -0.671323914250607E+00
             -0.119331428259329E-01
              0.584180287093815E+00
              0.646919745298172E+00
              0.825927859577194E-01
             -0.233850287524648E+00
              0.305377666155266E+00
             -0.729441699491783E+00
             -0.112801795507400E+00
             -0.976368163876773E+00
             -0.478618322796660E+00
              0.924692749735010E+00
             -0.560609510491354E+00
              0.130290651950041E+01
             -0.440537560885470E+00
              0.602427394915746E+00
              0.465772240473136E+00
             -0.109043354104328E+01
             -0.454452666020309E+00
              0.186463308069848E+00
             -0.780697783954895E+00
             -0.771996231500621E+00
             -0.164486250081662E+01
             -0.101445787018647E+01
             -0.898717247010945E+00
             -0.840863350881561E+00
              0.424709155661063E-03
              0.475207171504535E+00
              0.230017203539769E+00
              0.530507720809509E+00
             -0.107971357054607E+01
              0.243619989400340E+00
              0.545626826165229E+00
             -0.126928804357857E+01
             -0.102904927040584E+01
             -0.716856938146957E+00
             -0.636388153093517E+00
              0.246358155554612E+00
             -0.724446281774824E-01
             -0.772777604775211E+00
              0.490822488427022E+00
             -0.441419293464424E+00
              0.960286516159065E+00
             -0.161967511412529E+01
              0.118361647750876E+01
             -0.234984771529641E+00
             -0.823668359065569E+00
             -0.509888743267968E+00
             -0.282552263932465E-01
              0.924568245182289E+00
             -0.127123124431016E+01
             -0.232741432822398E+00
             -0.296867861050200E+00
              0.733380009473164E+00
              0.146583445674723E+01
             -0.185006662022043E+01
              0.168056353222430E+01
              0.691644463509485E+00
             -0.140660287911378E+01
             -0.565887734068059E+00
              0.146761197109228E+01
              0.103129956600463E+01
             -0.396301466746978E+00
             -0.140881018465755E+00
              0.363544866009147E+00
              0.145504596728052E+01
             -0.111197587084763E+01
              0.223077246902977E+00
             -0.144325616529076E+00
              0.468486914195791E+00
             -0.128391820256504E+01
             -0.358737559386419E-01
             -0.474458519232767E+00
              0.901342516208861E+00
              0.696090598203579E+00
             -0.163965964247070E+01
             -0.855709468572557E+00
             -0.374485839512513E+00
             -0.830719674664799E+00
             -0.223944162728702E+00
             -0.317127656959124E+00
              0.847782823224873E+00
              0.803735885250003E+00
             -0.138469471638185E-01
             -0.816342383659646E+00
             -0.158569652624211E+01
              0.959092046885985E+00
             -0.831881788547822E+00
             -0.713353548782645E+00
              0.137672551941549E+00
             -0.692841666973018E+00
             -0.737407660612454E+00
             -0.588699642285214E+00
             -0.969109865362187E+00
             -0.430774992744285E+00
             -0.920675396380501E+00
              0.997751577282154E+00
              0.106795505059575E+01
             -0.221656824223375E+00
             -0.370520857375606E+00
              0.703353506425941E-01
              0.785195810445963E+00
             -0.155086192348383E+01
             -0.439791021462177E+00
              0.904122103957906E+00
              0.133131390890532E+01
             -0.169128098873205E+00
              0.192481098282803E+00
              0.973826679838886E+00
              0.277178205242410E+00
              0.584810852308149E-01
             -0.711056462638320E+00
              0.245529840872108E+00
             -0.590476344379521E+00
             -0.113096542002958E+00
             -0.401353439176256E+00
             -0.250721468627643E+00
              0.453317950961857E+00
              0.145562981944980E+01
             -0.139390267262979E+00
              0.228991368192766E-01
             -0.168690125551328E+01
             -0.335003693716242E+00
             -0.646949990651888E+00
             -0.288753234989780E-01
             -0.893696956258851E+00
              0.169374470300049E+01
              0.160195210148150E+01
              0.339464777027777E+00
             -0.449359909610260E+00
              0.349602767941260E+00
              0.347636180067439E+00
             -0.851437590865106E+00
             -0.168677636621782E+00
              0.386693794009306E+00
              0.218308949399234E+00
              0.927640253773799E+00
              0.704587181720963E+00
             -0.392143069342634E+00
              0.378845281867643E+00
             -0.178834813956876E+01
             -0.253081336526759E-01
              0.166280529207364E+01
              0.351046709362826E+00
             -0.581898627629851E-01
              0.486877580609496E+00
             -0.426849991570872E+00
              0.158428290681144E+01
             -0.393298028372791E+00
              0.139764977130127E+01
              0.711919069314086E+00
             -0.829371971489548E+00
              0.617101794443980E+00
             -0.508817186081898E+00
             -0.125346371062558E+01
             -0.156548082620473E+00
             -0.988422043723606E+00
             -0.950228583023732E+00
             -0.191503634629395E-01
              0.708357110564192E+00
             -0.278013189603735E+00
             -0.548051996388617E+00
              0.138880218056969E+00
             -0.118668316745665E+01
             -0.545930341431683E-01
             -0.160262889674680E+01
              0.956611907444206E+00
             -0.807643792909887E-01
             -0.896284747182498E+00
             -0.279095310941987E+00
              0.314747557415581E+00
             -0.715586022539620E+00
             -0.808746863178578E+00
              0.168535232055165E+01
             -0.523510942291249E+00
             -0.673076028643532E+00
              0.593396351148587E+00
             -0.423854401413025E+00
              0.106532618349449E+01
             -0.481418902732038E-01
              0.415475351948587E-01
              0.203382883771330E+01
             -0.138506113677170E+00
             -0.722863419867133E+00
             -0.903221662283737E+00
             -0.933835815158693E+00
             -0.698154581003172E+00
              0.542593999662465E+00
              0.591689670521339E+00
              0.524718211194142E+00
              0.136962570927273E+01
              0.105706702699293E+00
              0.438314677027763E+00
             -0.104932376575700E+01
              0.375450450266834E-01
             -0.266689234942161E+00
             -0.499116486683851E+00
             -0.149510372076639E+00
              0.604505776729392E+00
              0.697062223413381E+00
             -0.501142715759891E-01
              0.254442338094451E+00
              0.496928465398139E+00
              0.620877291958934E+00
             -0.434069273080844E+00
             -0.178559236476842E+00
              0.917428237291507E-02
             -0.482830917492718E+00
             -0.424720134148728E-01
             -0.767641821054358E+00
              0.145967886882991E+01
              0.112638199722034E+01
             -0.335044563550431E+00
              0.316337169355524E+00
             -0.109341045071723E+00
             -0.604592187069444E+00
              0.698585797020901E+00
             -0.176288191477614E+00
              0.678200716591925E+00
             -0.868014582307239E+00
              0.321338465880625E+00
             -0.136946396942596E+00
             -0.986471916930430E+00
             -0.434111029158451E+00
              0.436768296329447E+00
             -0.181652645557629E+01
              0.706487415440757E+00
              0.851998109478600E+00
             -0.191575657055742E+00
             -0.136220439237287E+00
             -0.685911490727333E-01
              0.499660204265713E+00
             -0.617011441194042E+00
              0.557740056501315E+00
              0.605761140919564E+00
             -0.163212207415083E+01
             -0.679925132767342E+00
              0.444405967809507E+00
             -0.237653930508917E+00
              0.923249922376040E+00
             -0.114762747065743E+01
             -0.198929576411903E+00
             -0.724906699709082E+00
             -0.240776218752410E+01
              0.146340560265172E+01
             -0.110350155925559E+01
             -0.124810430030612E+01
              0.107532297022959E+00
              0.237725987313393E+01
              0.140431041515795E+00
             -0.626278600281767E+00
             -0.279659310950588E-01
             -0.714389385418988E-01
             -0.157259587605507E+01
             -0.100712183382496E+01
              0.159077583133688E+01
             -0.232487616573946E+00
             -0.651223270957837E+00
              0.885047035316179E+00
             -0.602467122725811E+00
              0.602037077498665E+00
              0.872601727566755E+00
             -0.959805575150535E+00
             -0.525444312584651E+00
             -0.591546986650210E+00
             -0.331105825147141E+00
             -0.355148917304743E+00
             -0.359916343127869E+00
              0.370287342316125E+00
             -0.653669131165155E+00
              0.498553980476941E+00
              0.996411372729935E+00
             -0.102632549078739E+00
             -0.390279569349958E+00
              0.281582099913881E+00
              0.993973981340583E+00
              0.102821941940204E+01
              0.210858976832378E+00
             -0.213353025343613E+00
             -0.214424960241649E+00
             -0.986868937221959E+00
              0.747075376107044E+00
             -0.455753790748856E+00
              0.423908429632354E+00
             -0.228661686907328E+00
              0.473632516020420E+00
              0.318812481311059E+00
             -0.151319620744090E+01
             -0.454148971633664E+00
             -0.144149945454094E+01
             -0.754805920859832E+00
              0.795005889976381E-01
             -0.365285056414164E+00
              0.652457792269655E+00
             -0.521595798237215E+00
              0.650404087969174E-01
              0.131324876867779E+00
              0.127760511647682E+01
              0.661755218634189E+00
             -0.616261624652944E+00
             -0.445289454260620E-01
              0.279946801535553E+00
              0.674141091843391E+00
             -0.124967536182501E-01
              0.104598637348165E+01
              0.509142925853607E+00
              0.166636276510734E+01
              0.609084482915829E-01
              0.112461427879953E+01
             -0.511878137617983E+00
             -0.716410886672654E+00
              0.255383947282146E-01
              0.215373508101671E+00
              0.407490366730565E+00
             -0.398341011968757E+00
             -0.188821726504208E+00
              0.420194546179116E+00
             -0.869929154497659E+00
             -0.111336207851794E+01
              0.147867912304638E+01
             -0.112151102810744E+00
             -0.661130236246589E+00
             -0.104323848504089E+00
             -0.262457494799794E+00
              0.833893648771881E+00
              0.660872992252339E+00
             -0.367007921603790E+00
             -0.877812246175314E-02
             -0.471043175701028E+00
             -0.657960294633481E+00
             -0.439696783891151E+00
             -0.180862761872231E+01
              0.321409437583595E-01
             -0.118328884769296E+01
             -0.109176138799580E+01
             -0.678128275818604E+00
              0.420078811674587E+00
             -0.705066258866268E+00
              0.454367561056529E+00
             -0.120747071763773E+01
              0.388547555431096E-02
             -0.788247843071002E+00
              0.145250198855681E+00
              0.131991495348244E+00
              0.656731351075591E+00
             -0.374990105903045E+00
             -0.347545871359145E+00
              0.597668221734161E+00
              0.108795694310314E+01
              0.595932824913532E+00
              0.206138624861417E+00
             -0.137830102333736E+01
             -0.299092114721695E+00
             -0.505207168469756E+00
             -0.112900819084211E+01
              0.788589852740419E+00
             -0.636358876613955E+00
             -0.139488475004601E+00
             -0.515635762052143E+00
             -0.181728242716701E+01
              0.104430973337606E+01
             -0.341324004082038E+00
              0.706597704533360E+00
             -0.137404202427278E+01
              0.120237771381493E+01
              0.118710737127126E+00
             -0.464111983894806E+00
              0.207531548485052E+00
             -0.358781320831827E+00
             -0.113147286694736E+01
              0.322314893842680E+00
              0.745071846534975E+00
             -0.350588526446760E-01
             -0.633265451659662E+00
             -0.296725665043781E+00
              0.388133851054875E+00
              0.691136992067371E+00
              0.113167337639284E+01
              0.406097796883113E+00
             -0.426204263568747E+00
              0.186798149220712E+01
              0.376766349858367E+00
              0.877288453887486E+00
             -0.301238082351246E+00
              0.550718134321457E+00
              0.454251081900774E+00
             -0.112461728940483E+01
             -0.419569816764966E+00
             -0.742342485420429E+00
             -0.783644342276485E+00
             -0.222553566430193E+00
             -0.147563671823312E+00
             -0.866962867228120E+00
             -0.202825827912174E+01
             -0.491500332237384E+00
              0.243613945444041E+00
              0.110360180066811E+00
              0.299516481642542E+00
              0.731387177131028E+00
              0.186188499089738E+00
              0.577655806807266E+00
             -0.798500644434051E+00
              0.785689530000520E+00
             -0.715415331795038E+00
             -0.121554008705897E+01
              0.392105267049006E+00
             -0.782805797740103E+00
             -0.725135586918386E+00
             -0.292440477488893E+01
             -0.121657586568007E+00
              0.155441437695903E+01
              0.731450179346600E+00
             -0.183477443901153E+00
             -0.205977205671212E+00
              0.832883229243885E+00
              0.117299004692397E+01
             -0.707228810390987E+00
             -0.243491416579980E+00
             -0.681216284514913E+00
             -0.605919453855204E+00
             -0.526446370292817E+00
              0.188526882126306E+00
              0.127698060123676E+01
             -0.119448627831678E+01
             -0.100589317965469E+01
              0.691624548312468E-01
             -0.293834852263329E+00
             -0.315400428109444E+00
             -0.163451488594412E+01
              0.116903950166936E+01
              0.351769821718580E+00
              0.180497220400794E+00
              0.964156073559870E+00
             -0.610286837178469E+00
              0.623132989496625E+00
              0.532101070148091E+00
              0.237100968223309E-01
             -0.158553285213345E+00
              0.141028986681596E+00
             -0.289650954023118E+00
              0.989650542373048E+00
             -0.720809384768174E+00
              0.860400594294745E+00
              0.172707526932910E+00
              0.324986121088246E+00
              0.351924043554645E+00
             -0.149204380447708E+01
              0.196061716558606E+00
             -0.122697041252568E+01
             -0.878937432137450E+00
             -0.875161745639090E+00
             -0.988099219802496E+00
             -0.779606447850512E-02
              0.360973654780241E+00
              0.921192275742332E+00
              0.127209680336127E+00
              0.274320343660724E+00
             -0.127222927786242E+01
             -0.518446128371475E+00
              0.584915077005784E+00
             -0.854503112157317E-01
             -0.726376692854402E-01
             -0.176358272788965E+00
              0.657193451353956E+00
             -0.166439274200549E+01
              0.250032970627491E+00
              0.374935745861875E+00
              0.710249044117042E+00
              0.680241261801336E+00
             -0.104052109026886E+01
              0.304256081519301E+00
              0.123390476116492E+00
              0.137240386376195E+00
              0.122936967616986E+00
             -0.349334716782968E+00
             -0.817619390462642E+00
              0.336372673275526E+00
              0.105384450929109E+01
              0.793372517772362E-02
              0.258007071479574E+00
              0.220346218956437E+00
             -0.577051092078614E+00
             -0.617033612139490E+00
             -0.226884419372705E+01
             -0.690543011857682E+00
             -0.109268234164847E+01
             -0.107177942309744E+00
             -0.126059278525743E+01
              0.138093889983043E+01
             -0.623341340519385E+00
             -0.101487027807747E+01
             -0.286694149708454E+01
              0.123340825496681E+01
              0.274519197724485E+00
              0.213530583646561E+00
             -0.111699744317339E+01
              0.617821502562688E-01
             -0.305813918818787E+00
             -0.572083986151250E+00
              0.159849772952061E+00
              0.590623264685777E+00
              0.882065775858774E-01
             -0.393776659773463E+00
              0.848170909936705E-01
              0.212306261405795E-01
              0.179624619428607E+00
             -0.123385834823056E+01
              0.136134619375410E+01
             -0.765806914699861E+00
             -0.487491039582704E+00
             -0.978127924685309E+00
             -0.203690928138921E+01
              0.836100453315733E-01
             -0.107204244500765E+01
             -0.319540169810430E+00
              0.554856633701999E+00
             -0.504974396672921E+00
             -0.227318934523209E+00
             -0.249507733997719E+00
             -0.348991486218559E+00
              0.687950817715652E-01
              0.949478839387911E+00
             -0.915777200949698E+00
              0.194051176451530E+01
             -0.465771859753300E+00
              0.582675562038669E+00
             -0.361166805395972E+00
              0.211430193266211E+00
             -0.224551813914132E+00
              0.805665675219396E+00
              0.115680882545651E+01
              0.326774110696793E+00
              0.786219840916700E+00
             -0.523071152423384E+00
             -0.152318872330746E+00
             -0.437136986699198E+00
              0.115837858636037E+01
              0.997450579936013E+00
              0.727221303622560E+00
             -0.231248634256245E+00
             -0.461577485557068E+00
              0.436009309380556E+00
             -0.538790896547364E+00
             -0.265210181818277E+00
             -0.101169353293824E+00
             -0.674486669276408E+00
              0.890626541348034E+00
             -0.208615510173477E+00
              0.656400363575687E+00
              0.433284947675589E+00
              0.272705037416396E+00
             -0.622621406849091E+00
              0.439847334215247E+00
             -0.248999997678289E+00
             -0.121866285034056E+00
             -0.135197585696565E-01
             -0.867355868829993E+00
              0.141579532934117E+01
             -0.487962556231929E+00
              0.493171141041682E-02
              0.469530294484602E+00
              0.388511184634527E+00
              0.143072019678795E+01
             -0.407862183952034E+00
              0.137415933219331E+01
              0.121384502914551E+01
             -0.169161645350483E+01
              0.125429411299900E+00
             -0.330099045898598E+00
              0.218955863076060E+00
              0.706097203217633E-01
              0.405819737433348E+00
              0.118806576188917E+01
              0.185380637926742E+01
             -0.132823670321299E+01
              0.138957091029192E+01
             -0.187334661289853E+01
             -0.160178213596966E+01
             -0.280922693274113E+00
              0.224140453463995E-01
              0.145989076384951E+01
              0.574676278483023E+00
             -0.228607193044044E+00
             -0.151674716706231E+01
              0.122980609244121E+01
             -0.740946937614638E+00
              0.439043497827249E-01
             -0.920989789697537E-01
              0.239796199857449E+01
             -0.396697985794157E+00
             -0.193140622979245E+01
              0.557987810082464E+00
             -0.298550325336191E+01
              0.234921766581959E+00
             -0.713407876433109E+00
             -0.318327440900636E+00
             -0.473854948780818E+00
             -0.109421007079685E+01
              0.663329578236156E+00
             -0.673683832693625E+00
             -0.278536441123888E+00
             -0.138029229737629E+01
             -0.714658181530519E-01
             -0.102191266024789E+01
             -0.141805656854626E+01
             -0.190491082400342E+01
              0.135161982960851E+00
             -0.696792916730511E+00
              0.220039477326202E+00
             -0.248519354149273E+00
             -0.153068579134598E+01
             -0.119133287812599E+01
             -0.104554975190752E+01
             -0.108843422335798E+01
              0.951029970565707E+00
              0.957590820972287E-01
             -0.920758379320746E+00
             -0.469926679422422E+00
             -0.513653839207726E+00
              0.774386259496424E+00
             -0.560024037363329E+00
             -0.603199007601778E-01
             -0.597905085269868E+00
             -0.728942400134901E+00
             -0.777428169968213E+00
              0.746424247827846E+00
             -0.227161351172997E+00
             -0.169902281279927E+01
              0.142580255790818E+01
              0.823353737233959E+00
              0.480475673965195E-01
             -0.151313260871124E+01
             -0.137172650447027E+01
              0.777845322932205E-01
              0.105818243515099E-02
             -0.626729612346079E+00
             -0.799513608013892E+00
              0.532591515280444E+00
             -0.856671830543219E-01
              0.492969513549242E+00
              0.874964894345151E+00
              0.642834536633051E+00
              0.436185246877522E+00
              0.394573330589345E+00
             -0.407358554587645E+00
             -0.285549584701720E+00
             -0.339361776505703E+00
             -0.712381936311619E+00
             -0.864015265029216E+00
             -0.110352980887619E+01
             -0.649973676771828E+00
             -0.243042997788760E+00
             -0.134358668368640E+01
             -0.342715273172962E+00
              0.666468166675452E+00
             -0.158864894598309E+01
              0.691874296021178E+00
              0.554768973010145E+00
             -0.134368277211914E+01
             -0.102510627920085E+01
             -0.440416688552630E+00
              0.213574415121492E+00
             -0.758389285343586E+00
              0.139382259555972E+01
              0.123171625287478E+01
             -0.142338466938392E+01
              0.738896970602815E+00
              0.667909740829028E+00
              0.177835447806305E+00
              0.332734761315627E+00
             -0.783274139746623E+00
             -0.286207900404228E+00
              0.129749042970928E+00
              0.386583540247087E+00
              0.750840664041304E+00
             -0.994793248679959E+00
             -0.214093055414441E+00
              0.288371554728418E+00
              0.204293339720832E+00
             -0.645394676871393E+00
              0.332584760645610E+00
             -0.453169271836336E+00
             -0.325209513859357E+00
             -0.271832944912909E-01
             -0.113800327237100E+01
             -0.120305038102564E-01
             -0.129299307466162E+00
             -0.295651443885080E+00
              0.326484510696221E+00
             -0.961753912349549E+00
              0.108888280566516E+01
             -0.381246246736860E+00
             -0.249215402430765E+01
             -0.157872898570677E+01
              0.628563196620572E+00
             -0.796735324361880E+00
             -0.411365434234330E+00
             -0.415950049283323E+00
             -0.361313481630373E+00
             -0.191460342782949E+01
              0.340073500909988E-02
             -0.114079279218249E+01
             -0.625409936116180E+00
              0.357907335717478E+00
              0.147982164395378E+01
              0.100512680302228E+00
              0.636518674249591E-01
              0.111681353249334E+01
             -0.108527405098952E+01
              0.498960542107437E+00
              0.107806835742373E+00
             -0.100145230615922E+01
             -0.589977130791743E+00
              0.348834656759207E+00
              0.628051771208944E-01
              0.319567241867912E+00
              0.261198323748713E+00
             -0.436146620659804E+00
             -0.628038229210823E+00
             -0.916689556470862E+00
              0.919455035973525E+00
             -0.126643150457333E+01
             -0.926718346841408E+00
              0.280646822881327E+00
             -0.154263800873298E+01
              0.441440338241939E+00
              0.111035637056972E+01
             -0.221373438897971E+00
              0.394062857552216E+00
             -0.643012856194210E+00
             -0.421314571931084E+00
              0.199141262958136E+00
              0.663140765303440E+00
             -0.669917550244949E+00
              0.395986984498450E+00
             -0.261514490700690E+00
              0.167033579438118E+00
              0.318818692506329E+00
              0.150361470724279E+00
             -0.236283371391528E+00
             -0.172525481164163E-01
              0.199641708948795E+00
              0.509865488798050E+00
             -0.130541817916427E+01
             -0.536871921297930E-01
              0.969362046581833E+00
             -0.160403497334883E+01
              0.603650791136789E+00
             -0.208271585665053E+01
             -0.219037776759241E+00
             -0.261349815921913E+00
             -0.302747929136089E-01
             -0.240860152480211E+00
             -0.510018863046913E+00
             -0.219325035890787E+00
              0.221884789232596E+00
             -0.475826935714719E+00
              0.190250148942369E+00
              0.167701657790987E+01
             -0.103001839247063E+01
             -0.464531876361450E+00
              0.788376694880906E+00
              0.377637757984609E+00
              0.786053730120792E+00
              0.385615530648485E+00
              0.279162841721031E+00
             -0.254726643268073E+00
             -0.907408992279095E+00
             -0.827895342706055E+00
             -0.679322842230732E+00
              0.125581659957476E+00
             -0.787605868416653E+00
             -0.209676346732372E+00
              0.112334103458940E+00
              0.457455191364325E+00
             -0.120044369993656E+00
              0.108928684798247E+01
             -0.124588211226909E+01
             -0.335627030386920E-02
             -0.142249258058018E+00
              0.589905224452201E+00
             -0.782024444858339E+00
             -0.515965529329084E+00
              0.212913593283940E+00
              0.814144231728894E+00
              0.140829589114893E+01
              0.540327449924138E+00
              0.859149030672125E+00
             -0.442309658154142E+00
              0.115939601896620E+01
              0.116117399928218E+01
             -0.146903607986353E-01
              0.542903222305947E+00
              0.691510638326118E+00
             -0.380237567241879E+00
              0.295068444682528E+00
              0.121332981379040E+01
             -0.370077344944252E+00
             -0.108461604233270E+00
             -0.114712804538574E+01
              0.403439182602548E+00
             -0.293171123169930E+00
              0.402789576837534E+00
              0.889529755773788E-02
             -0.714217219537339E+00
              0.831471084860741E+00
              0.724363845641270E+00
             -0.597372173015270E+00
              0.324603508663834E+00
             -0.110806612026888E+01
             -0.100319873910827E+01
              0.462375616386261E+00
             -0.125345231242601E+01
             -0.655699821880415E+00
              0.183724799378382E-02
              0.158702741672948E+01
             -0.420453086729215E+00
             -0.196366862227501E+00
             -0.392092673609287E+00
              0.204528763724851E+01
              0.348196632687714E+00
             -0.781415229913988E+00
              0.130693695512050E+01
              0.114856688299406E+01
              0.611736513454201E+00
              0.148552510454438E+01
              0.162834874905947E+01
             -0.457131996585073E-01
             -0.530531789984485E+00
             -0.441967627670968E+00
              0.514489642667024E+00
              0.722918530432182E+00
             -0.138072802457124E+00
             -0.452982970439199E+00
             -0.104358754089450E+01
             -0.362155378999216E+00
             -0.856866831762249E+00
              0.633712251675539E+00
              0.327651502434215E+00
              0.111454430594279E+01
              0.258475769405659E+00
             -0.413894197188506E+00
             -0.163099194058775E+00
              0.730181093029557E+00
              0.182051540858133E+00
              0.114957101699702E+01
              0.101214889697547E+01
             -0.148721990181056E+00
             -0.172217871360052E+00
             -0.188935131151487E+01
              0.896849563012810E+00
              0.136650146617097E-01
              0.106533496452848E+01
             -0.479754418037457E+00
             -0.123614414380961E+01
              0.364107502754984E+00
              0.135029322999338E+01
             -0.472079023347899E+00
              0.121300470438319E+01
             -0.132390046507070E+01
             -0.482497381847760E+00
             -0.159035326159345E+01
              0.283987717331559E+00
              0.616267533422574E-01
              0.179349196675060E+00
             -0.115319340352181E+01
              0.173132189021380E+01
              0.993752866842343E+00
              0.108542030752784E+00
             -0.103181669320622E+01
              0.375996961170729E+00
             -0.311799814556299E+00
             -0.289653757993431E+00
             -0.520844275188770E+00
              0.296238418225623E+00
             -0.333858737770541E+00
             -0.338543265318552E+00
              0.447652959795661E+00
              0.425551103643672E+00
             -0.165998264429236E+01
              0.363343522251534E+00
              0.121596288835097E+01
              0.776383407678082E+00
             -0.232989081739496E+00
             -0.499109263100646E-01
             -0.677483132302985E+00
              0.102027676063620E+01
              0.153155377958703E+00
             -0.462352697850230E-01
             -0.109707776452455E+00
              0.200225330646408E+01
             -0.160361613934432E+00
              0.394689504564832E+00
              0.137703528554974E+01
              0.176465850667099E+01
              0.109472862780388E+01
              0.714290965215802E+00
             -0.118738221435874E+01
             -0.859027617308277E+00
              0.670775848650033E+00
              0.101379922978408E+00
              0.559879405621151E+00
              0.223779404865959E+00
              0.120381765584973E+01
             -0.146255912250532E+01
             -0.899046469170250E+00
             -0.227567712638717E+00
             -0.160335278842360E+01
              0.357633437187675E+00
              0.876941874921906E+00
             -0.183964774142247E-01
             -0.370500026264493E+00
              0.379922608400043E+00
              0.246070298155521E+01
              0.603803032474248E+00
              0.334259352201800E+00
             -0.860972348038008E+00
             -0.104373615027841E+01
             -0.232910332924098E+00
              0.527644725663579E+00
             -0.108391276184676E+00
              0.491073123146443E+00
              0.646725079103179E+00
             -0.112410441905597E+01
              0.501964132680573E+00
              0.569868393444947E+00
              0.103186965481298E+01
             -0.193400419471192E+00
              0.116959173880052E+00
             -0.128406176237863E+00
             -0.806249026232361E+00
             -0.134803222885373E+01
              0.137829026676241E+01
             -0.197791684058156E+00
             -0.956284511579633E+00
              0.168111424041212E+00
             -0.575090845111433E+00
              0.155814667454540E+01
             -0.420392808149515E+00
             -0.699482074289488E+00
              0.693401365766579E+00
             -0.294734380364320E+00
              0.867805743991983E+00
              0.563217913699079E-01
              0.167795928115196E+01
              0.979281186096428E+00
              0.255073512849173E+00
             -0.733980231697799E+00
              0.540556002599105E+00
             -0.989444628999828E+00
             -0.646668168831948E-01
              0.118755875664913E+01
             -0.458502195466182E+00
             -0.790596162231969E+00
             -0.425933414653519E+00
              0.940577381414126E+00
              0.209417604692054E+00
             -0.148640007589306E+01
              0.637880321392736E+00
              0.894779818872911E-01
              0.215434385406403E+00
             -0.888511204227113E+00
              0.204471691699940E+00
              0.624935321342837E+00
              0.826217154628059E+00
              0.120211011692099E+01
              0.664093512872848E+00
              0.146919633538809E+00
             -0.103274054535488E+01
             -0.760480078096522E+00
             -0.115965080501878E+01
             -0.278869279403459E+00
              0.632374416790443E+00
             -0.116973819992805E-02
              0.940246005441718E+00
             -0.584235137072065E+00
              0.307092198603335E+00
             -0.450452415875022E+00
             -0.494716672259019E+00
              0.108845143013297E+01
              0.922428260880093E-01
              0.114973664533295E+01
              0.107485960674802E+00
              0.341056066353380E+00
             -0.295085012520882E+00
              0.110229581267532E+01
             -0.320904178589853E+00
              0.487421314775097E-02
             -0.143157616423448E+01
             -0.120541875808022E+00
              0.127000648149022E+01
              0.116500550765542E+01
              0.464194430180573E+00
             -0.302500254574795E+00
              0.106749232572406E+00
             -0.450123933792160E+00
             -0.401512011091416E+00
              0.165175307521157E+01
              0.154175433899370E+00
             -0.546541118388778E+00
             -0.193096051422281E+01
             -0.748245938651034E+00
             -0.700373298244881E+00
             -0.110474033813026E+01
             -0.109602948773874E+01
             -0.129990287526461E+01
             -0.820208053057593E+00
             -0.475192190875710E+00
             -0.892196592843501E+00
              0.804048029714945E+00
             -0.293242468169733E+00
             -0.150247928105578E+01
              0.758388036110855E+00
             -0.624548253453937E+00
             -0.145082482339815E+01
              0.185825708228979E+01
             -0.474116867784934E+00
              0.255071671884955E+00
              0.680573948967690E+00
              0.283103911690428E+00
              0.488441497035252E+00
              0.258197876232611E-01
              0.274988455506174E-01
             -0.236611336592265E+00
             -0.135973363161524E+01
              0.201672283456417E+00
             -0.217281314807727E+01
              0.135465647062359E+01
             -0.729197746459750E+00
             -0.357167687253697E+00
             -0.391441404299625E+00
              0.434395969063309E+00
             -0.274253548391259E+00
              0.510290693918991E+00
             -0.108687456953772E+01
              0.656621803191526E+00
              0.806738833505761E+00
              0.131680968247214E+00
              0.173201902471259E+00
              0.400306142008559E+00
              0.199591070975221E+00
              0.535204122945457E+00
             -0.724358019527394E-01
             -0.141038094743241E+01
              0.174109615207305E+00
             -0.659586306776665E+00
             -0.649145570688097E-01
              0.104990824686766E+01
             -0.145377109788586E+01
              0.447256419926623E-01
              0.742731494260145E-01
              0.175436677107969E+00
              0.551351440389013E+00
             -0.223530682300609E+00
              0.153644144419057E+01
              0.645909375292342E+00
             -0.260522407404497E+00
             -0.151139061847406E+00
              0.133313946986094E+00
              0.143654628122656E+01
             -0.882560034602985E+00
             -0.184925499660419E+01
              0.535511004139114E+00
             -0.142656128137792E+00
             -0.301033230503203E+00
              0.355731382677596E+00
              0.137192497935868E+01
              0.753242987665540E+00
             -0.307898705731963E+00
             -0.999959055577870E+00
             -0.249365284411963E+00
              0.494406485670834E+00
             -0.347551593677342E+00
             -0.140507348436359E+01
             -0.191224192816586E+00
             -0.181249122899997E+01
             -0.963283307308175E+00
              0.161653949426897E+01
             -0.970405532719539E+00
             -0.133015788651383E+01
             -0.973644773976673E+00
             -0.747908443119375E+00
              0.637067157222392E+00
              0.157800016755883E+01
             -0.199367913239507E+00
              0.479502744243153E+00
             -0.393072202465388E+00
             -0.124883201215394E+01
              0.948923821844472E+00
             -0.898975581712770E+00
              0.435461129123838E+00
              0.505267247024936E+00
             -0.313177375475670E+00
              0.661506235990005E+00
              0.697077261045955E+00
              0.226102649832646E+01
             -0.168285924376860E+00
             -0.107086533883736E+01
             -0.122434369932666E+01
             -0.369314581339305E+00
             -0.820015831167610E+00
              0.167805916525942E+01
             -0.828439149345038E+00
              0.193708517370014E+00
              0.238105949518728E-01
             -0.339510147476690E+00
             -0.160292578612945E+01
             -0.121365439888774E+00
              0.185448402115786E+01
              0.439532458647409E+00
              0.136349901669922E+00
             -0.110812158624252E+01
             -0.990602884905075E+00
             -0.359553918911659E+00
              0.814081261978997E+00
             -0.500824789105016E+00
              0.183340525253767E+01
             -0.898708564221153E+00
              0.368624841535099E+00
             -0.211763302869979E+00
             -0.111448117871333E+01
              0.129996665939808E+00
             -0.104895810969769E+01
             -0.135897636229594E+01
              0.222518951361764E+00
              0.193201128582903E-01
              0.903147870639402E+00
              0.517113318342527E+00
             -0.646309439307464E+00
              0.393071576846895E+00
             -0.165634028098101E+01
             -0.849584526350078E+00
              0.170975003140948E+01
              0.390100848843793E-01
             -0.618455541710201E-01
             -0.438461025289416E+00
             -0.662725676919074E-02
             -0.240902552203000E+00
              0.171976293356421E+01
              0.760094649509282E+00
             -0.137676761363570E+00
              0.334425542670802E-01
             -0.694727119728360E+00
             -0.212741586359332E+00
             -0.112645027612531E+01
              0.962845971096288E+00
              0.122490363296567E+00
              0.122287644173757E+00
              0.363903333994628E+00
             -0.278248572125810E+00
             -0.436193165214808E+00
              0.202569489380178E+00
             -0.208009617732091E+01
             -0.167223153728910E+00
             -0.183244712322287E+00
             -0.106521039671126E+00
              0.864916765098918E+00
              0.119953505072812E+01
              0.336539396562614E+00
             -0.171009788884466E+01
              0.116577126118160E+01
             -0.445044979334307E+00
             -0.679539169615579E+00
             -0.160959686071037E+01
             -0.470005594031927E+00
              0.118598802831428E+01
              0.636762538527950E+00
              0.319597397308720E+00
              0.665682749547120E+00
             -0.103154737515262E+01
             -0.924696105003356E+00
              0.116888815343937E+01
              0.769422475805927E+00
              0.847821356478307E+00
              0.188847793967443E+00
              0.200461946225428E+00
              0.969149195003835E+00
              0.181834415743524E+01
             -0.294205705296644E+00
              0.755635900777945E+00
             -0.593396571296044E+00
             -0.817738118251710E+00
             -0.643675709377887E+00
             -0.633076507376537E+00
             -0.263645744102156E+00
             -0.867550936253190E+00
             -0.338051770920340E+00
             -0.235338708386405E+01
              0.571008092710068E+00
              0.542325236748720E+00
             -0.655808942928391E-01
             -0.670574251972390E+00
             -0.329626618705317E+00
             -0.104808684341281E+01
              0.898108903293844E-01
              0.145202109604178E+01
             -0.344349206382923E+00
             -0.351063302245927E+00
              0.342829480978800E+00
             -0.943249281938301E+00
              0.157250065109081E+01
              0.283681752151102E+00
              0.889265091596805E-01
              0.953842175075500E+00
             -0.132726227332441E+00
              0.108977905961975E+01
              0.383413062255406E+00
             -0.890664139060826E-02
              0.254709533625322E+00
             -0.213515205971919E+00
              0.121474384602049E+01
              0.129775858881741E+00
              0.409994899129655E+00
             -0.164038858091866E+00
              0.199645973240335E+00
             -0.174172881635751E+01
             -0.644611476168615E+00
             -0.924305333526949E+00
              0.914131100292107E+00
             -0.664737049874840E+00
             -0.100052177948238E+01
              0.110714468362288E+01
             -0.260572483732838E+00
              0.746679496612892E+00
             -0.163805635381996E+01
              0.301588734811128E+00
              0.619049938092699E-01
              0.124814804596829E+00
             -0.264610747094767E+00
             -0.119132016266047E+00
              0.936262300375473E+00
              0.605648766761933E-01
             -0.993815022995548E+00
             -0.411506575024122E+00
              0.320616243699622E+00
             -0.211814522554389E+01
             -0.157989374758398E+01
              0.914532794984879E-02
              0.317889977359743E+00
             -0.961841343074576E+00
              0.268070499869530E-01
              0.187301242634828E+01
              0.519603808395857E+00
             -0.982381439932841E+00
              0.140197972033609E+00
             -0.201352425884423E+00
              0.250803208825618E+00
             -0.668926447007870E+00
              0.437498829565538E+00
              0.423402731853148E+00
             -0.165521857042743E+00
              0.208507853841685E+01
             -0.502314799406007E-01
             -0.567229249913678E+00
              0.617028302597777E+00
              0.790104312131213E+00
             -0.578903258861664E+00
             -0.114147005448129E-01
              0.181076541499455E+01
             -0.291894530951513E-01
              0.949123738554390E+00
              0.311960023914968E+00
             -0.112439659270847E+00
             -0.251945344827151E+00
              0.853363582968210E+00
             -0.111134977655435E+01
             -0.361615132838571E-01
             -0.385427867189265E+00
             -0.736370181079162E+00
              0.199108434445977E+00
              0.465616993808952E+00
             -0.587783629820997E-01
             -0.278294375623211E-01
             -0.773986067726351E+00
              0.260948126418611E+00
             -0.167075909379935E-01
             -0.389810977760264E+00
             -0.368375080631050E+00
              0.291594105567984E+00
              0.660602668684440E-02
             -0.720393129130606E+00
             -0.199506169189374E+01
              0.122577568213178E+00
              0.245258687483248E+00
             -0.922271793184896E+00
             -0.472150706067325E+00
              0.151997950536152E+01
              0.260410808909580E+00
              0.843471421336320E+00
              0.223920397087094E+00
              0.753408200864531E+00
              0.403168064085113E-01
             -0.728038698309737E+00
             -0.259684383145216E+00
              0.858220195044073E-01
              0.594940463759093E+00
              0.135703746406378E+01
              0.911879442745307E+00
              0.681243530194511E-01
              0.201609342663519E+00
              0.111522528868138E+01
              0.532550170524571E+00
             -0.125713018110978E+01
             -0.520286852389439E+00
              0.188548039003033E+00
              0.195945389422275E+00
              0.459379974791582E+00
             -0.937400197476367E+00
              0.722113917853000E-01
              0.779977124399964E+00
              0.897208713122481E+00
             -0.771777011922165E+00
              0.860232218145836E-01
             -0.468394739069327E-01
             -0.407967096382212E+00
             -0.436605435741914E+00
             -0.187333637202532E+00
             -0.267522140223782E+00
              0.225265018858770E+00
              0.779035536383639E+00
             -0.608204785537908E+00
              0.149416942068546E+01
              0.615099554399790E+00
              0.496090126145081E+00
              0.696633154458529E+00
              0.430015412646176E+00
              0.663833056973566E+00
              0.102493142712415E+01
             -0.881975184745868E+00
              0.116181230496724E+01
             -0.211046965865002E+01
              0.581102443942670E+00
             -0.193495915483821E+01
              0.147874581671265E+01
              0.146165544620551E+01
             -0.146308589122080E+00
             -0.859144487790544E+00
             -0.797797811874623E+00
             -0.973019590090868E+00
             -0.121607590252447E+01
              0.101062133198849E+01
              0.788380679875933E+00
              0.449965292160148E+00
              0.441688942165266E+00
              0.852707758341821E+00
             -0.764339545847625E+00
             -0.255146411307543E+00
              0.964981702298271E+00
             -0.222071139416171E+00
              0.908064453361717E+00
              0.144532639034041E+01
             -0.627241668019621E-01
             -0.140629029990534E+01
              0.120094977422060E+00
              0.261875064162903E-01
             -0.196871330120052E+00
              0.695066269287068E-01
             -0.118559240327721E+01
             -0.115611434718806E+00
              0.272267863215385E+00
              0.288396160606983E+00
              0.928740797499855E+00
             -0.786783351149079E+00
              0.912098386324455E+00
             -0.693256347193651E+00
              0.519925855056138E+00
              0.821043142970789E+00
 
 BEEF-vdW xc energy contributions
           1 :   -12.7646531402345     
           2 :    10.4136474171406     
           3 :   -7.01189161006080     
           4 :    3.80779977013235     
           5 :   -1.42820901870696     
           6 :   8.250562722166066E-003
           7 :   0.594050813334691     
           8 :  -0.671009392217757     
           9 :   0.533195978185498     
          10 :  -0.406814111103575     
          11 :   0.375306177027124     
          12 :  -0.408829949711606     
          13 :   0.434927122289114     
          14 :  -0.403416043835156     
          15 :   0.300925945173615     
          16 :  -0.147743678388439     
          17 :  -1.670657978601575E-002
          18 :   0.146681804042005     
          19 :  -0.210010026316041     
          20 :   0.198883900349621     
          21 :  -0.131442826828325     
          22 :   3.704602475689356E-002
          23 :   5.472003742791287E-002
          24 :  -0.122870167639435     
          25 :   0.160040765950713     
          26 :  -0.169253797084277     
          27 :   0.153741538927845     
          28 :  -0.121568344684624     
          29 :   8.935312883833468E-002
          30 :  -7.145872248184837E-002
          31 :   -1.73774193645160     
          32 :   -1.06785232729573     

     Writing output data file ./pwscf.save/
 
     init_run     :     64.42s CPU     66.80s WALL (       1 calls)
     electrons    :    465.36s CPU    506.41s WALL (       1 calls)
     forces       :     25.05s CPU     27.17s WALL (       1 calls)

     Called by init_run:
     wfcinit      :      1.74s CPU      1.81s WALL (       1 calls)
     potinit      :     54.37s CPU     56.15s WALL (       1 calls)
     hinit0       :      6.80s CPU      6.91s WALL (       1 calls)

     Called by electrons:
     c_bands      :     70.23s CPU     71.07s WALL (      15 calls)
     sum_band     :     35.46s CPU     40.98s WALL (      15 calls)
     v_of_rho     :    289.94s CPU    316.22s WALL (      16 calls)
     newd         :     14.10s CPU     19.76s WALL (      16 calls)
     PAW_pot      :      2.12s CPU      2.12s WALL (      16 calls)
     mix_rho      :    102.58s CPU    107.32s WALL (      15 calls)
     vdW_kernel   :     33.86s CPU     33.86s WALL (       1 calls)

     Called by c_bands:
     init_us_2    :      1.30s CPU      1.33s WALL (      31 calls)
     regterg      :     67.32s CPU     68.15s WALL (      15 calls)

     Called by *egterg:
     rdiaghg      :      0.02s CPU      0.02s WALL (     105 calls)
     h_psi        :     61.17s CPU     61.19s WALL (     106 calls)
     s_psi        :      1.80s CPU      1.80s WALL (     106 calls)
     g_psi        :      0.21s CPU      0.21s WALL (      90 calls)

     Called by h_psi:
     h_psi:calbec :      1.44s CPU      1.44s WALL (     106 calls)
     vloc_psi     :     57.61s CPU     57.61s WALL (     106 calls)
     add_vuspsi   :      1.77s CPU      1.77s WALL (     106 calls)

     General routines
     calbec       :      1.81s CPU      1.81s WALL (     125 calls)
     fft          :    248.13s CPU    248.15s WALL (    2873 calls)
     ffts         :     41.34s CPU     41.34s WALL (     499 calls)
     fftw         :     55.01s CPU     55.01s WALL (     658 calls)
 
     Parallel routines
 
     PWSCF        :  17m21.73s CPU  19m 2.00s WALL

 
   This run was terminated on:  23:23:23   3Jan2023            

=------------------------------------------------------------------------------=
   JOB DONE.
=------------------------------------------------------------------------------=
