
     Program PWSCF v.6.7MaX starts on  3Jan2023 at 23: 3:18 

     This program is part of the open-source Quantum ESPRESSO suite
     for quantum simulation of materials; please cite
         "P. Giannozzi et al., J. Phys.:Condens. Matter 21 395502 (2009);
         "P. Giannozzi et al., J. Phys.:Condens. Matter 29 465901 (2017);
          URL http://www.quantum-espresso.org", 
     in publications or presentations arising from this work. More details at
     http://www.quantum-espresso.org/quote

     Parallel version (MPI), running on     1 processors

     MPI processes distributed on     1 nodes
     Reading input from chcc-gas-ensemble.in
Warning: card &CELL ignored
Warning: card / ignored

     Current dimensions of program PWSCF are:
     Max number of different atomic species (ntypx) = 10
     Max number of k-points (npk) =  40000
     Max angular momentum in pseudopotentials (lmaxx) =  3
     file C.pbe-n-kjpaw_psl.1.0.0.UPF: wavefunction(s)  2S 2P renormalized
     file H.pbe-kjpaw_psl.1.0.0.UPF: wavefunction(s)  1S renormalized

     **************************************************************************
     Initializing libbeef V0.1.2 with the BEEF-vdW functional.
     Citation: Wellendorff et al., PRB 85, 235149 (2012).
     **************************************************************************


     IMPORTANT: XC functional enforced from input :
     Exchange-correlation= BEEF-VDW
                           (   1   4  43  14   2   0   0)
     Any further DFT definition will be discarded
     Please, verify this is what you really want


     gamma-point specific algorithms are used

     Subspace diagonalization in iterative solution of the eigenvalue problem:
     a serial algorithm will be used

 
     G-vector sticks info
     --------------------
     sticks:   dense  smooth     PW     G-vecs:    dense   smooth      PW
     Sum       34245   34245   8551              4440915  4440915  555251
 


     bravais-lattice index     =            0
     lattice parameter (alat)  =      41.1373  a.u.
     unit-cell volume          =   70732.8315 (a.u.)^3
     number of atoms/cell      =            4
     number of atomic types    =            2
     number of electrons       =        13.00
     number of Kohn-Sham states=           11
     kinetic-energy cutoff     =      60.0000  Ry
     charge density cutoff     =     240.0000  Ry
     scf convergence threshold =      1.0E-06
     mixing beta               =       0.7000
     number of iterations used =            8  local-TF  mixing
     Exchange-correlation= BEEF-VDW
                           (   1   4  43  14   2   0   0)

     celldm(1)=  41.137277  celldm(2)=   0.000000  celldm(3)=   0.000000
     celldm(4)=   0.000000  celldm(5)=   0.000000  celldm(6)=   0.000000

     crystal axes: (cart. coord. in units of alat)
               a(1) = (   1.000000   0.000000   0.000000 )  
               a(2) = (   0.000000   1.059798   0.000000 )  
               a(3) = (   0.000000   0.000000   0.958719 )  

     reciprocal axes: (cart. coord. in units 2 pi/alat)
               b(1) = (  1.000000  0.000000  0.000000 )  
               b(2) = (  0.000000  0.943576  0.000000 )  
               b(3) = (  0.000000  0.000000  1.043058 )  


     PseudoPot. # 1 for C  read from file:
     /users/bkreitz1/quantum-espresso/potentials/C.pbe-n-kjpaw_psl.1.0.0.UPF
     MD5 check sum: a169b0ebad56f5ec0d79c4633f80bf22
     Pseudo is Projector augmented-wave + core cor, Zval =  4.0
     Generated using 'atomic' code by A. Dal Corso  v.6.7MaX
     Shape of augmentation charge: PSQ
     Using radial grid of 1073 points,  4 beta functions with: 
                l(1) =   0
                l(2) =   0
                l(3) =   1
                l(4) =   1
     Q(r) pseudized with 0 coefficients 


     PseudoPot. # 2 for H  read from file:
     /users/bkreitz1/quantum-espresso/potentials/H.pbe-kjpaw_psl.1.0.0.UPF
     MD5 check sum: ae98473e6dc62675f0d0baffdab24f65
     Pseudo is Projector augmented-wave, Zval =  1.0
     Generated using 'atomic' code by A. Dal Corso  v.6.7MaX
     Shape of augmentation charge: PSQ
     Using radial grid of  929 points,  2 beta functions with: 
                l(1) =   0
                l(2) =   0
     Q(r) pseudized with 0 coefficients 


     atomic species   valence    mass     pseudopotential
        C              4.00    12.01100     C ( 1.00)
        H              1.00     1.00800     H ( 1.00)

     No symmetry found



   Cartesian axes

     site n.     atom                  positions (alat units)
         1           C   tau(   1) = (   0.4828874   0.5006130   0.4876252  )
         2           C   tau(   2) = (   0.5115543   0.5487899   0.4749758  )
         3           C   tau(   3) = (   0.5402358   0.6009093   0.4605157  )
         4           H   tau(   4) = (   0.4595078   0.4592820   0.4995561  )

     number of k points=     1  Gaussian smearing, width (Ry)=  0.0050
                       cart. coord. in units 2pi/alat
        k(    1) = (   0.0000000   0.0000000   0.0000000), wk =   2.0000000

     Dense  grid:  2220458 G-vectors     FFT dimensions: ( 216, 216, 200)

     Estimated max dynamical RAM per process >       3.42 GB

     Initial potential from superposition of free atoms

     starting charge   12.99987, renormalised to   13.00000

     negative rho (up, down):  8.971E-03 0.000E+00


     %%%%%%%%%%%%%%%%%%%%%%%%%%%%%%%%%%%%%%%%%%%%%%%%%%%%%%%%%%%%%%%%%%%%%%%%
     %                                                                      %
     % You are using vdW-DF, which was implemented by the Thonhauser group. %
     % Please cite the following two papers that made this development      %
     % possible and the two reviews that describe the various versions:     %
     %                                                                      %
     %   T. Thonhauser et al., PRL 115, 136402 (2015).                      %
     %   T. Thonhauser et al., PRB 76, 125112 (2007).                       %
     %   K. Berland et al., Rep. Prog. Phys. 78, 066501 (2015).             %
     %   D.C. Langreth et al., J. Phys.: Condens. Matter 21, 084203 (2009). %
     %                                                                      %
     %                                                                      %
     % If you are calculating the stress with vdW-DF, please also cite:     %
     %                                                                      %
     %   R. Sabatini et al., J. Phys.: Condens. Matter 24, 424209 (2012).   %
     %                                                                      %
     %%%%%%%%%%%%%%%%%%%%%%%%%%%%%%%%%%%%%%%%%%%%%%%%%%%%%%%%%%%%%%%%%%%%%%%%


     Starting wfcs are   13 randomized atomic wfcs
     Checking if some PAW data can be deallocated... 

     total cpu time spent up to now is       67.9 secs

     Self-consistent Calculation

     iteration #  1     ecut=    60.00 Ry     beta= 0.70
     Davidson diagonalization with overlap
     ethr =  1.00E-02,  avg # of iterations =  3.0

     negative rho (up, down):  8.311E-03 0.000E+00

     total cpu time spent up to now is      102.8 secs

     total energy              =     -57.70470414 Ry
     estimated scf accuracy    <       0.47880941 Ry

     iteration #  2     ecut=    60.00 Ry     beta= 0.70
     Davidson diagonalization with overlap
     ethr =  3.68E-03,  avg # of iterations =  2.0

     negative rho (up, down):  9.712E-03 0.000E+00

     total cpu time spent up to now is      136.3 secs

     total energy              =     -57.66545324 Ry
     estimated scf accuracy    <       0.12057348 Ry

     iteration #  3     ecut=    60.00 Ry     beta= 0.70
     Davidson diagonalization with overlap
     ethr =  9.27E-04,  avg # of iterations =  5.0

     negative rho (up, down):  1.435E-02 0.000E+00

     total cpu time spent up to now is      172.4 secs

     total energy              =     -57.67837531 Ry
     estimated scf accuracy    <       0.01455121 Ry

     iteration #  4     ecut=    60.00 Ry     beta= 0.70
     Davidson diagonalization with overlap
     ethr =  1.12E-04,  avg # of iterations =  8.0

     negative rho (up, down):  3.856E-02 0.000E+00

     total cpu time spent up to now is      209.0 secs

     total energy              =     -57.67649060 Ry
     estimated scf accuracy    <       0.00752281 Ry

     iteration #  5     ecut=    60.00 Ry     beta= 0.70
     Davidson diagonalization with overlap
     ethr =  5.79E-05,  avg # of iterations =  5.0

     negative rho (up, down):  6.515E-02 0.000E+00

     total cpu time spent up to now is      245.5 secs

     total energy              =     -57.67663681 Ry
     estimated scf accuracy    <       0.00269130 Ry

     iteration #  6     ecut=    60.00 Ry     beta= 0.70
     Davidson diagonalization with overlap
     ethr =  2.07E-05,  avg # of iterations =  8.0

     negative rho (up, down):  7.225E-02 0.000E+00

     total cpu time spent up to now is      283.3 secs

     total energy              =     -57.67705828 Ry
     estimated scf accuracy    <       0.00117761 Ry

     iteration #  7     ecut=    60.00 Ry     beta= 0.70
     Davidson diagonalization with overlap
     ethr =  9.06E-06,  avg # of iterations =  4.0

     negative rho (up, down):  7.190E-02 0.000E+00

     total cpu time spent up to now is      319.1 secs

     total energy              =     -57.67703633 Ry
     estimated scf accuracy    <       0.00052739 Ry

     iteration #  8     ecut=    60.00 Ry     beta= 0.70
     Davidson diagonalization with overlap
     ethr =  4.06E-06,  avg # of iterations =  7.0

     negative rho (up, down):  5.826E-02 0.000E+00

     total cpu time spent up to now is      355.4 secs

     total energy              =     -57.67670026 Ry
     estimated scf accuracy    <       0.00028310 Ry

     iteration #  9     ecut=    60.00 Ry     beta= 0.70
     Davidson diagonalization with overlap
     c_bands:  2 eigenvalues not converged
     ethr =  2.18E-06,  avg # of iterations = 20.0

     negative rho (up, down):  3.771E-02 0.000E+00

     total cpu time spent up to now is      395.4 secs

     total energy              =     -57.67647264 Ry
     estimated scf accuracy    <       0.00011096 Ry

     iteration # 10     ecut=    60.00 Ry     beta= 0.70
     Davidson diagonalization with overlap
     c_bands:  2 eigenvalues not converged
     ethr =  8.54E-07,  avg # of iterations = 20.0

     negative rho (up, down):  2.854E-02 0.000E+00

     total cpu time spent up to now is      435.8 secs

     total energy              =     -57.67647832 Ry
     estimated scf accuracy    <       0.00003998 Ry

     iteration # 11     ecut=    60.00 Ry     beta= 0.70
     Davidson diagonalization with overlap
     c_bands:  1 eigenvalues not converged
     ethr =  3.08E-07,  avg # of iterations = 20.0

     negative rho (up, down):  2.083E-02 0.000E+00

     total cpu time spent up to now is      475.3 secs

     total energy              =     -57.67649855 Ry
     estimated scf accuracy    <       0.00001991 Ry

     iteration # 12     ecut=    60.00 Ry     beta= 0.70
     Davidson diagonalization with overlap
     ethr =  1.53E-07,  avg # of iterations =  7.0

     negative rho (up, down):  1.836E-02 0.000E+00

     total cpu time spent up to now is      510.8 secs

     total energy              =     -57.67650456 Ry
     estimated scf accuracy    <       0.00000508 Ry

     iteration # 13     ecut=    60.00 Ry     beta= 0.70
     Davidson diagonalization with overlap
     ethr =  3.91E-08,  avg # of iterations =  1.0

     negative rho (up, down):  1.639E-02 0.000E+00

     total cpu time spent up to now is      544.2 secs

     total energy              =     -57.67650919 Ry
     estimated scf accuracy    <       0.00000217 Ry

     iteration # 14     ecut=    60.00 Ry     beta= 0.70
     Davidson diagonalization with overlap
     ethr =  1.67E-08,  avg # of iterations =  2.0

     negative rho (up, down):  1.528E-02 0.000E+00

     total cpu time spent up to now is      569.8 secs

     End of self-consistent calculation

          k = 0.0000 0.0000 0.0000 (277626 PWs)   bands (ev):

   -20.8133 -17.8734 -14.5380  -9.2010  -9.1996  -7.6017  -5.1006  -5.0998
    -1.0065  -0.4047  -0.3427

     the Fermi energy is    -5.1327 ev

!    total energy              =     -57.67651048 Ry

     total all-electron energy =      -230.968797 Ry
     estimated scf accuracy    <       0.00000062 Ry
     smearing contrib. (-TS)   =      -0.00449386 Ry
     internal energy E=F+TS    =     -57.67201662 Ry

     The total energy is F=E-TS. E is the sum of the following terms:
     one-electron contribution =    -106.15848425 Ry
     hartree contribution      =      54.51737617 Ry
     xc contribution           =     -14.58156201 Ry
     ewald contribution        =      28.23400248 Ry
     one-center paw contrib.   =     -19.68334902 Ry

     convergence has been achieved in  14 iterations

     negative rho (up, down):  1.528E-02 0.000E+00

     Forces acting on atoms (cartesian axes, Ry/au):

     atom    1 type  1   force =    -0.00154600   -0.00381402    0.00345284
     atom    2 type  1   force =    -0.00250313    0.00008335   -0.00190784
     atom    3 type  1   force =     0.00279450    0.00041441    0.00006260
     atom    4 type  2   force =     0.00125463    0.00331627   -0.00160760

     Total force =     0.007868     Total SCF correction =     0.000197

     negative rho (up, down):  1.528E-02 0.000E+00

     negative rho (up, down):  1.528E-02 0.000E+00

     negative rho (up, down):  1.528E-02 0.000E+00

     negative rho (up, down):  1.528E-02 0.000E+00

     negative rho (up, down):  1.528E-02 0.000E+00

     negative rho (up, down):  1.528E-02 0.000E+00

     negative rho (up, down):  1.528E-02 0.000E+00

     negative rho (up, down):  1.528E-02 0.000E+00

     negative rho (up, down):  1.528E-02 0.000E+00

     negative rho (up, down):  1.528E-02 0.000E+00

     negative rho (up, down):  1.528E-02 0.000E+00

     negative rho (up, down):  1.528E-02 0.000E+00

     negative rho (up, down):  1.528E-02 0.000E+00

     negative rho (up, down):  1.528E-02 0.000E+00

     negative rho (up, down):  1.528E-02 0.000E+00

     negative rho (up, down):  1.528E-02 0.000E+00

     negative rho (up, down):  1.528E-02 0.000E+00

     negative rho (up, down):  1.528E-02 0.000E+00

     negative rho (up, down):  1.528E-02 0.000E+00

     negative rho (up, down):  1.528E-02 0.000E+00

     negative rho (up, down):  1.528E-02 0.000E+00

     negative rho (up, down):  1.528E-02 0.000E+00

     negative rho (up, down):  1.528E-02 0.000E+00

     negative rho (up, down):  1.528E-02 0.000E+00

     negative rho (up, down):  1.528E-02 0.000E+00

     negative rho (up, down):  1.528E-02 0.000E+00

     negative rho (up, down):  1.528E-02 0.000E+00

     negative rho (up, down):  1.528E-02 0.000E+00

     negative rho (up, down):  1.528E-02 0.000E+00

     negative rho (up, down):  1.528E-02 0.000E+00

     negative rho (up, down):  1.528E-02 0.000E+00

     negative rho (up, down):  1.528E-02 0.000E+00

     negative rho (up, down):  1.528E-02 0.000E+00

     negative rho (up, down):  1.528E-02 0.000E+00
 BEEFens 2000 ensemble energies
             -0.112260054804255E+01
             -0.397793448604484E-01
             -0.213118869861592E+00
              0.758111321760596E+00
             -0.355903466398431E+00
             -0.250426627601835E+00
             -0.844644253477953E+00
             -0.168383001930578E+01
             -0.542310394074621E+00
             -0.596657882332568E+00
             -0.632217422599036E+00
              0.129922320847741E+00
              0.638927632722672E-01
             -0.126971442951085E+00
              0.673786622786059E-01
              0.808972475576326E+00
             -0.320921918047295E+00
             -0.118870357882139E+00
              0.434353017628666E+00
             -0.188831341684150E+01
              0.978283969724736E+00
             -0.304634792973017E+00
             -0.105733571601461E+00
             -0.141743579839628E+00
              0.773413292476679E-01
             -0.698208830694320E-01
              0.149749485780913E+01
             -0.444311397526344E+00
             -0.119475845629811E+00
             -0.986216916773691E+00
              0.112210511115354E+01
             -0.159031491737007E-01
             -0.717997561945129E+00
              0.281105263191689E+00
             -0.499768712550894E-01
              0.541544747270908E+00
              0.522515645707138E-01
             -0.365530435705135E-01
              0.696079064865027E+00
             -0.167761556157492E+01
              0.933820234548333E+00
              0.208417193349387E+00
             -0.255299632206187E+00
             -0.485783706494839E+00
              0.209252414894170E+00
             -0.328607612276570E+00
              0.894219741578480E+00
              0.598091488604453E+00
             -0.282548417009208E+00
             -0.559782867356116E+00
             -0.537458687708932E+00
             -0.648699026565918E+00
              0.420700496516860E+00
             -0.896627426705168E+00
              0.292735328261815E+00
              0.105181521410961E+01
              0.133475477889330E+01
              0.536060607283475E+00
              0.270595725052140E+00
              0.576923589370583E+00
              0.157022309181066E+01
              0.250466435548922E+00
             -0.938325404519599E+00
             -0.141051269327439E+00
             -0.519032492853030E+00
              0.105818185720571E+01
             -0.119372348024218E+01
             -0.998939586944795E+00
             -0.614558219052858E+00
             -0.386295003562481E+00
             -0.627982390537041E+00
              0.477231643053566E+00
              0.238044306502783E+00
              0.293655584998856E+00
             -0.660543500619480E+00
             -0.605667223814359E+00
             -0.103134495186795E+01
              0.504654984199581E+00
             -0.611285587481504E+00
              0.573776353729993E+00
             -0.158825523424778E+00
             -0.462797168641170E+00
             -0.820169821687833E+00
             -0.249636735397719E+00
             -0.304244659062597E+00
             -0.239612324587561E+00
              0.658201720096506E+00
              0.138238019502767E+01
             -0.806065479886692E+00
             -0.135072239466267E+01
             -0.305813299821858E+00
              0.184440134490526E+01
             -0.960559907614940E+00
              0.518204827299861E+00
             -0.211357662494805E+00
             -0.978353684454335E+00
              0.465643996045301E+00
              0.487539031872845E+00
             -0.255107697784076E+00
              0.466035856207523E+00
             -0.407394794512831E+00
             -0.109421127034925E+01
              0.177047539413839E+01
              0.781829363534808E+00
              0.316021785520883E+00
              0.219721480861115E+00
              0.434789624427819E+00
              0.137556872424928E+01
             -0.456031054351995E+00
              0.369758192409007E-01
             -0.234665420371486E+01
              0.277987222493794E+00
             -0.111605505259739E+01
              0.207548747324770E+00
              0.371384429279395E+00
             -0.654016609393581E+00
             -0.834092147327972E+00
              0.270523704468424E-01
             -0.536931216791519E+00
              0.796670389586373E+00
             -0.766914992874658E+00
             -0.179750177914729E+00
             -0.661044170048824E+00
             -0.559891177191334E-01
              0.109595031626799E+00
              0.427806948659305E+00
             -0.727801135855088E-02
             -0.942620688178453E-01
              0.117249248608142E+01
              0.157856356681879E+01
              0.858956642943585E+00
              0.104931792550886E+01
             -0.222967498468137E+00
              0.123640025125299E+00
              0.865823298168145E+00
              0.143875023755488E+00
             -0.130878561442236E+01
             -0.774480528374727E+00
             -0.830421116078280E+00
             -0.503307426744004E+00
              0.426651325852604E+00
             -0.209883795672165E+01
             -0.202400053787640E+00
              0.812827179059091E+00
             -0.686582629769196E+00
             -0.474983183206264E+00
              0.102994814503376E+01
              0.853833159967317E+00
             -0.470489673638080E+00
              0.637851302222826E+00
             -0.428803248662848E+00
              0.645791866003426E+00
              0.106236357610922E+00
              0.141389470262828E+00
             -0.137988336728328E+01
             -0.810807003619837E+00
             -0.140973145547266E+00
             -0.782340913771492E-01
             -0.744087676625020E+00
              0.192841770775915E+01
             -0.161571065667921E+00
             -0.431835811813668E+00
              0.651268722622383E+00
             -0.742834669705155E+00
             -0.662115230547439E+00
              0.573894568156740E+00
              0.223156921102246E+00
              0.180533773203106E+00
              0.309491060893196E+00
             -0.178653650122791E+00
              0.133868607939690E+00
              0.991657124575258E+00
             -0.436521479939151E+00
              0.395917901226261E+00
              0.151211342072250E+01
              0.542870217932768E+00
             -0.618892588869109E-01
             -0.370263705787731E+00
              0.267234323748934E+01
             -0.457200252928183E+00
              0.684317761076048E+00
              0.561795773179674E+00
              0.437421623748037E+00
              0.158836874034885E+01
              0.768836185544762E+00
             -0.893294176610825E-01
              0.450697859357282E+00
              0.908680638620291E+00
              0.653202485854095E+00
             -0.106818136040265E+01
              0.162349723901307E+01
             -0.146791910330324E+01
             -0.146323518027698E+00
              0.948598797850488E+00
              0.348289598888039E+00
              0.107383853830504E+00
              0.434642069245330E+00
              0.239382991350083E+00
              0.545820506372992E+00
             -0.106976976995750E+01
              0.611045519223188E-01
             -0.387982065560829E+00
             -0.888140886107691E-01
             -0.707777076414633E-01
             -0.243728188447931E+00
             -0.116480009126261E+00
              0.141101493100897E+01
             -0.772133290346453E-01
             -0.480935990418383E+00
             -0.941257952475349E-02
              0.248732129531557E+00
             -0.111889903148496E+01
             -0.101620766722141E+01
             -0.572505635086297E+00
             -0.107913876945825E+01
             -0.331046037685009E+00
             -0.679606717523442E+00
              0.304441592942344E+00
              0.571452975840161E-01
             -0.227967181047488E+00
             -0.130046263863974E+00
              0.743294147978819E-01
             -0.174040128377580E+00
              0.111849524268052E+01
             -0.153121356813617E+01
             -0.232269868608709E+00
             -0.211329115863410E+00
              0.251391019506308E+00
              0.399504304800825E+00
             -0.891516257411626E+00
             -0.185499545688629E+00
              0.764598283884820E+00
             -0.303255512979645E+00
              0.225730472636279E+00
              0.551758648142786E+00
             -0.128360177890539E-01
              0.196129724470900E+01
             -0.140695402807729E+00
             -0.577883455863873E+00
             -0.176361676522969E-01
             -0.494762513240321E+00
              0.941128633719132E+00
             -0.879677632665422E+00
              0.255790885437012E+00
              0.805263391474020E+00
             -0.209890064670827E+00
              0.201428694634601E+01
              0.218536149239041E+01
             -0.121533209622142E+01
              0.988487773507327E+00
              0.440753902056843E+00
             -0.982821680797310E+00
              0.276554585193888E+00
              0.771837612776245E+00
              0.835090247496297E+00
              0.786926889224770E-01
              0.334274339405686E+00
              0.130635449706985E+01
             -0.397833587316252E+00
              0.148942717414128E+00
              0.112859578173610E+01
             -0.612996646708720E+00
             -0.454335923112972E+00
              0.104852447112909E+01
              0.528454268321223E+00
              0.130770948979443E+01
              0.626956427904384E+00
              0.257210183581860E+00
              0.419890188800796E+00
              0.744407603605442E+00
             -0.945666403665560E+00
              0.154040443550397E+00
              0.540913967754925E+00
              0.193260528343034E+00
              0.430107598005196E+00
             -0.108184864125604E+01
              0.534087570231804E+00
             -0.736517484469033E+00
             -0.530381446457215E+00
              0.361065070955398E+00
             -0.118412538189795E+00
              0.105571976112194E+01
             -0.182819145267915E+00
              0.517779227370797E+00
              0.505957687565983E+00
              0.130256459853284E+01
              0.881994477572904E+00
              0.887182401968360E+00
              0.796275871033103E-02
             -0.226761275141623E+00
             -0.497725183082670E+00
              0.143853113710700E+01
              0.141971524712905E+01
              0.689974516856505E+00
             -0.515516158078554E+00
              0.839693846258036E+00
              0.574681213396442E-01
              0.259333467487661E+00
              0.121704107607508E+01
             -0.513506102146688E-01
             -0.165625679388937E+00
             -0.321555352388174E+00
             -0.109639460891985E+01
              0.165988839584700E+01
              0.922144380866891E+00
             -0.113867009368177E+01
             -0.404168839652248E+00
              0.426095131513792E+00
             -0.169795600599718E+00
              0.114868260973747E+01
              0.252643041070001E+00
              0.140645431059501E+01
              0.563981458061095E+00
             -0.372724102086976E+00
              0.284167200650182E+00
             -0.126083486865559E+00
             -0.405318983070421E+00
              0.300215520685321E+00
              0.246797892858282E+00
              0.156764791786450E+01
              0.130712905602282E+01
              0.994010923679889E+00
              0.112299243391773E+01
              0.120525848706846E+00
             -0.428446900239548E+00
              0.227868775078969E+00
             -0.554969404995198E+00
             -0.100329270086097E+01
             -0.954642191656999E+00
             -0.567103667316354E+00
             -0.185184879833369E+01
             -0.671821225692004E+00
             -0.149677469392445E+01
              0.373799322047664E+00
             -0.762042566480225E+00
              0.915050924606401E+00
             -0.172686479945112E+01
             -0.508099884645759E+00
              0.605204454336223E+00
              0.374143105733634E+00
             -0.159092184995724E+01
              0.880629305690761E+00
             -0.490481095883998E+00
              0.958596927483958E+00
             -0.449394729862604E+00
             -0.135573550492605E+01
              0.312644869322804E+00
             -0.114535664572040E+01
             -0.750321210484683E-02
             -0.389621109253344E-01
              0.697147605497805E+00
              0.216359815375724E+01
             -0.723788691745483E+00
             -0.640350709476384E+00
             -0.134089990790643E+00
             -0.117446035584395E+00
             -0.137066349955055E+01
             -0.955991688751116E+00
              0.834323864818034E+00
             -0.276842019435393E+00
              0.414787940075692E+00
             -0.845910256745196E+00
             -0.295472961442172E+00
             -0.707126752005191E+00
              0.815770045869444E+00
              0.186371824287216E+00
             -0.421820809440864E+00
             -0.335797321046492E+00
              0.251060631011588E+00
             -0.125609656871384E+00
              0.679862795080662E+00
             -0.457642152945764E+00
              0.232973954600650E+00
              0.591582117499190E+00
              0.197812845593296E+00
             -0.438017582953965E+00
              0.265281085516822E+01
              0.105086527107905E+01
              0.186498952418248E+00
              0.948406049805008E-01
             -0.104295963352195E+01
              0.582824701425056E+00
             -0.136988855807917E+01
             -0.612422043577597E+00
             -0.104402793513299E+01
             -0.310503396684447E+00
              0.102718828744766E+01
             -0.100701703747585E+01
              0.493678219144289E+00
             -0.786378410092841E-01
              0.145461112909389E-01
             -0.510217801639784E+00
             -0.701849238842176E+00
             -0.133779614566620E+00
             -0.524671604777921E+00
             -0.368322397365827E+00
             -0.681980003319785E+00
             -0.782051707008215E-01
             -0.543527735273014E+00
             -0.824046685367668E+00
              0.347531209398775E+00
             -0.176789420857680E+00
              0.438483028505090E+00
              0.132897952716762E+00
             -0.131234716711810E+01
             -0.857159023615126E+00
             -0.896423660360226E+00
              0.523904721803667E+00
             -0.138845197027742E+00
             -0.104850432438106E+01
              0.978176994740037E+00
             -0.727353262574091E+00
              0.103610841898512E+01
             -0.548363003495423E+00
             -0.850763045976970E+00
              0.401575296615505E+00
             -0.125981425244971E+01
             -0.520605560896909E+00
              0.978602897802440E+00
              0.346356037968069E+00
             -0.787384235781175E+00
              0.978263468720162E+00
             -0.275760752613108E+00
             -0.656463644708010E+00
             -0.508948400167642E+00
             -0.902823884572513E+00
              0.457180146539945E+00
             -0.148482508959025E+01
             -0.128662932035902E+01
             -0.142827407209027E+00
             -0.498596572301290E+00
             -0.105368818277381E+01
              0.133062050823997E+01
              0.239321665268887E+01
             -0.329089641573543E+00
             -0.773592858057066E-01
             -0.101689500218927E+01
              0.114908576818540E+01
              0.386290845142555E+00
             -0.377902242821611E+00
             -0.605930375935391E+00
              0.250117820707970E+00
             -0.101878695584259E+01
             -0.181725203658039E+00
             -0.145982210801766E+01
              0.591567972625100E+00
              0.166643299217625E+00
             -0.110993111010133E+00
             -0.226224095018061E+00
             -0.756793846997100E+00
             -0.248671262172870E+00
              0.237858997634320E+01
             -0.265180835888790E+00
             -0.853915618556715E+00
             -0.120461596566494E+01
              0.250355170752236E+00
             -0.678183783277315E+00
              0.193143792026808E+00
              0.589530025257145E+00
              0.779173956077304E-01
              0.631979079378239E+00
              0.325683508476938E+00
              0.100153566693685E+01
              0.400817481379231E+00
             -0.642595466570216E+00
              0.992103119972488E+00
              0.581593378900742E+00
              0.216990894780676E+00
              0.614095481083571E+00
             -0.578052669048055E+00
              0.122561616356922E+01
              0.483239840053416E+00
             -0.615996990525809E+00
             -0.867107886412923E-01
             -0.283703456816642E+00
              0.245994775782036E+00
             -0.425819239556955E+00
             -0.240938135622232E+00
             -0.233047952667881E+00
              0.140097663578028E+01
              0.102159839468303E+01
             -0.108334635902899E+01
             -0.157104285873675E+00
             -0.846742855581157E+00
             -0.222835129108053E+00
             -0.351258357410570E+00
              0.211111454891479E+00
             -0.567169140974756E-01
             -0.506293333091437E+00
              0.333796978429379E+00
             -0.167755054838790E+00
             -0.103009649383698E+00
              0.150993329230279E+01
              0.240795628173890E+00
             -0.145383385931063E+01
             -0.634908089841819E+00
              0.167065795104684E+01
              0.403873003114461E+00
             -0.142305081260536E+00
              0.190152963311732E+01
             -0.268930203014009E+00
             -0.125663396070513E+00
             -0.220613457685609E+00
              0.285050080705269E+00
              0.595881736957920E+00
              0.337834915645150E-01
              0.485989970338956E+00
             -0.171776671666638E+00
             -0.714944274895222E+00
             -0.678712043025540E+00
             -0.827307386214519E+00
              0.681663599284454E+00
              0.251019837906184E+00
              0.649693049744605E+00
              0.277750961452760E+00
              0.157368342629046E+01
              0.366160435852386E+00
             -0.132423979972127E+01
             -0.573200370043137E+00
              0.183854109433779E-01
             -0.482026380201133E+00
              0.110940195674164E+01
             -0.281062024548937E+00
              0.298543637902202E+00
              0.973636606885404E+00
             -0.141512236084226E+01
              0.254674246852900E+01
              0.339983739847793E+00
              0.413095540213185E+00
              0.663546707627992E+00
              0.430476792208045E-01
             -0.270275334826060E-01
              0.553570434523738E+00
             -0.607233864013463E+00
              0.152320262293014E+01
              0.132721344327305E+01
             -0.678045409262378E+00
              0.289063100618862E+00
              0.125567851192240E+01
             -0.366947827770111E+00
              0.372625307717211E+00
              0.543655616352381E+00
              0.704846782969192E+00
             -0.127583700605182E+01
             -0.779263103545702E-01
             -0.436252776043199E+00
             -0.103480162112948E+00
             -0.123868155657388E+00
              0.147380238220322E+00
             -0.195820991613895E+00
             -0.531842099316361E+00
              0.311693106214697E+00
              0.869255311209640E-01
              0.917123686811971E+00
             -0.820088160170116E+00
              0.818502274012586E+00
              0.882156564130384E+00
             -0.126900466296964E+00
              0.126829536088062E+01
             -0.116076403892811E+01
             -0.178734908973462E+01
             -0.152848370395728E+00
             -0.127689257420867E+00
             -0.241478813337697E-01
              0.135504431768725E+01
              0.492748013209698E-02
              0.742939687153146E+00
              0.106329797390211E+01
              0.673969663376276E+00
             -0.122017367850509E+00
              0.101234368389951E+01
             -0.294103722316324E+00
             -0.690945297108087E+00
             -0.585416579024542E+00
              0.200255063166196E+00
              0.592517689785696E+00
             -0.297188509854509E-01
              0.565662777540044E+00
              0.128914153403166E-01
              0.943907707068398E+00
              0.269743068543121E+00
              0.137497157439799E+00
              0.435302715569881E-01
              0.500833319513167E+00
              0.711313373437049E+00
              0.234788905942358E+00
             -0.660952256078509E-01
             -0.944998034830738E+00
              0.528704305369844E+00
              0.365633611220930E+00
              0.552336543543952E+00
              0.516448036903784E+00
              0.631481932688195E+00
             -0.170433713750383E+00
              0.614070917750055E+00
             -0.506653907096128E+00
             -0.248362646577984E-01
             -0.901829434980064E+00
             -0.604286545707041E+00
              0.754614630345354E+00
             -0.151031788815314E+01
              0.399200201822838E+00
              0.236455007351271E+00
              0.149191704065627E+01
             -0.183900270603367E+00
              0.572694322498188E+00
             -0.189976200416925E+00
             -0.866501162244991E+00
             -0.110938790252572E+01
             -0.283742611971159E+00
             -0.157611438699161E+01
              0.113456624595491E+00
             -0.345156973574791E+00
              0.569763458156492E+00
              0.429722831882625E+00
             -0.512158844533330E+00
             -0.531768622941669E+00
              0.743718370179544E+00
             -0.100270938284861E+01
             -0.238900501667003E+00
             -0.280312131418095E+00
              0.493181069360771E+00
              0.120867642460793E+00
              0.625254699696072E-01
             -0.252639682282819E+00
              0.923599743289574E+00
             -0.107716414977493E+01
              0.108406160497093E+00
              0.104315196119999E+01
             -0.649489890481008E+00
              0.667415752211400E-01
              0.597571455144017E-01
             -0.110912003166376E+01
             -0.629111277086295E+00
             -0.118256236134734E-01
              0.552660891080355E+00
              0.615859699384417E+00
              0.701868382036626E-01
             -0.226729171315750E+00
              0.297237229044886E+00
             -0.688556389041118E+00
             -0.105494860014526E+00
             -0.910860789639680E+00
             -0.448129917989872E+00
              0.872654242810992E+00
             -0.526319219653268E+00
              0.122993656149886E+01
             -0.415006622073663E+00
              0.565888361481528E+00
              0.439487980086214E+00
             -0.102822953390061E+01
             -0.426702373352186E+00
              0.180295105885083E+00
             -0.745037203751325E+00
             -0.724865225930741E+00
             -0.156384918487433E+01
             -0.954290648718868E+00
             -0.851016635428263E+00
             -0.788402348111934E+00
              0.220159454108027E-02
              0.451241479961198E+00
              0.217708533469765E+00
              0.508088916894707E+00
             -0.101965543489166E+01
              0.230526248661413E+00
              0.504855936126339E+00
             -0.119173989777394E+01
             -0.964924793624521E+00
             -0.675752581009688E+00
             -0.602874064050940E+00
              0.236383249927224E+00
             -0.723545809454968E-01
             -0.724879845397279E+00
              0.460036124285083E+00
             -0.414012729385162E+00
              0.902100931527430E+00
             -0.152924624781780E+01
              0.112230684407118E+01
             -0.226658891624202E+00
             -0.768353527702308E+00
             -0.483749375425386E+00
             -0.262103496353192E-01
              0.873819212650040E+00
             -0.119733164845696E+01
             -0.220395724594919E+00
             -0.280987510010558E+00
              0.687386217598399E+00
              0.138084720757909E+01
             -0.174536833808125E+01
              0.158378012038543E+01
              0.648756873832878E+00
             -0.132777665567533E+01
             -0.527230276082531E+00
              0.138203351078254E+01
              0.971915717488063E+00
             -0.369551719823393E+00
             -0.129112440798579E+00
              0.339154123049657E+00
              0.137766247639545E+01
             -0.104646273781791E+01
              0.208273174281183E+00
             -0.142144350998017E+00
              0.431460060864293E+00
             -0.120939957307809E+01
             -0.357045018058652E-01
             -0.444007963857315E+00
              0.846722170062313E+00
              0.649956864040930E+00
             -0.154855132468820E+01
             -0.808532030275087E+00
             -0.348032915116633E+00
             -0.789409088682924E+00
             -0.216954816316211E+00
             -0.292252145946085E+00
              0.796530936220238E+00
              0.754219547043750E+00
             -0.104090050418897E-01
             -0.778252006835706E+00
             -0.149415515101338E+01
              0.901117012624745E+00
             -0.785915581791155E+00
             -0.670060350990116E+00
              0.127957369708021E+00
             -0.659519670461904E+00
             -0.697516051018432E+00
             -0.553638212483052E+00
             -0.913225169139396E+00
             -0.408361582556684E+00
             -0.868717819081231E+00
              0.940689691219926E+00
              0.100336041841319E+01
             -0.211218332646880E+00
             -0.344353975400383E+00
              0.727442820571120E-01
              0.734727441262544E+00
             -0.145834287243233E+01
             -0.417370020435010E+00
              0.850187476200427E+00
              0.125989380831990E+01
             -0.152223369500200E+00
              0.177217222141149E+00
              0.920482795504828E+00
              0.252352269829120E+00
              0.530682053131946E-01
             -0.671868108088614E+00
              0.226046095590943E+00
             -0.558456463229930E+00
             -0.100172217925027E+00
             -0.383602538017915E+00
             -0.233313560284165E+00
              0.432044212805929E+00
              0.136868311874962E+01
             -0.133081989538098E+00
              0.237156401499043E-01
             -0.158879393949867E+01
             -0.311038167949684E+00
             -0.614012850706839E+00
             -0.286152850881849E-01
             -0.850201421990223E+00
              0.160192502356517E+01
              0.150936808728042E+01
              0.319536291458154E+00
             -0.420689752333887E+00
              0.331506598737990E+00
              0.327252965366638E+00
             -0.801043272088812E+00
             -0.162456117915519E+00
              0.362072182557583E+00
              0.201072469102430E+00
              0.877563101757623E+00
              0.666126218285899E+00
             -0.365799058766135E+00
              0.349390185269218E+00
             -0.168411250462675E+01
             -0.257329252228973E-01
              0.156462378266985E+01
              0.327833941365059E+00
             -0.581796684997649E-01
              0.457612966077936E+00
             -0.410882347378777E+00
              0.148910870744239E+01
             -0.365943765219202E+00
              0.131765027547221E+01
              0.669925556561284E+00
             -0.776299238190843E+00
              0.578914517369334E+00
             -0.480310546867527E+00
             -0.117878801568981E+01
             -0.142254071560873E+00
             -0.936385201520982E+00
             -0.896017253227480E+00
             -0.206809500230469E-01
              0.669308113979852E+00
             -0.261995870517997E+00
             -0.514079349952075E+00
              0.124510647957841E+00
             -0.112002264177466E+01
             -0.501603516168012E-01
             -0.151049682528222E+01
              0.899903892496899E+00
             -0.776274692019310E-01
             -0.849775523730073E+00
             -0.252483524109578E+00
              0.296656963901841E+00
             -0.677526333436772E+00
             -0.765263085317090E+00
              0.159175574572181E+01
             -0.496037422571298E+00
             -0.626060994536928E+00
              0.559235656298833E+00
             -0.399237674479460E+00
              0.101351192162566E+01
             -0.420788580908091E-01
              0.386530330364163E-01
              0.192203434021488E+01
             -0.126626515946922E+00
             -0.679003969103925E+00
             -0.852925919787580E+00
             -0.878368122670381E+00
             -0.658608545944169E+00
              0.516003974166056E+00
              0.555078572261723E+00
              0.493874639768692E+00
              0.129353905695861E+01
              0.105524267872438E+00
              0.408585312156950E+00
             -0.983799815511592E+00
              0.377810948008088E-01
             -0.247193589092354E+00
             -0.465472230048205E+00
             -0.146967662197714E+00
              0.571738212619029E+00
              0.657659748060530E+00
             -0.492258238942652E-01
              0.244134130412122E+00
              0.463857726958895E+00
              0.579658540782638E+00
             -0.417199552238161E+00
             -0.167416676141512E+00
              0.774650090712248E-02
             -0.455169011021340E+00
             -0.357339686870057E-01
             -0.726375660699728E+00
              0.138149814373636E+01
              0.106607999935851E+01
             -0.315282924731118E+00
              0.293025067173716E+00
             -0.103052607632569E+00
             -0.572357633122747E+00
              0.660144742234881E+00
             -0.165212421915353E+00
              0.643785156796340E+00
             -0.816264044311947E+00
              0.306248962014745E+00
             -0.128702168078529E+00
             -0.931268270781455E+00
             -0.410292953662765E+00
              0.412420320323541E+00
             -0.170811928717215E+01
              0.669876172154186E+00
              0.805397491752839E+00
             -0.179818048163295E+00
             -0.133756233749681E+00
             -0.687672936685102E-01
              0.475568685943234E+00
             -0.587555318546973E+00
              0.521299736442512E+00
              0.569319920819312E+00
             -0.153177400872420E+01
             -0.648098050933164E+00
              0.416914689697448E+00
             -0.224977394115979E+00
              0.871782709498985E+00
             -0.108055097680270E+01
             -0.190918217535820E+00
             -0.687870148278412E+00
             -0.227034133011734E+01
              0.137544145196510E+01
             -0.103701954990306E+01
             -0.117783698232861E+01
              0.978859876682032E-01
              0.223904720473810E+01
              0.133155870763955E+00
             -0.585285693940059E+00
             -0.253467836666870E-01
             -0.687905161736275E-01
             -0.148272042576290E+01
             -0.942588496413444E+00
              0.149172562213341E+01
             -0.218124229582578E+00
             -0.615652225210668E+00
              0.827661780181135E+00
             -0.567556076550683E+00
              0.568279315851926E+00
              0.825022009894421E+00
             -0.907107483430886E+00
             -0.496120121855594E+00
             -0.557923955566379E+00
             -0.315489429668817E+00
             -0.330865694564583E+00
             -0.339540921988315E+00
              0.356752053688693E+00
             -0.619119886015791E+00
              0.470508289127324E+00
              0.936552241303062E+00
             -0.996268149226439E-01
             -0.372304954441303E+00
              0.269546158748319E+00
              0.946202868944837E+00
              0.968351442746012E+00
              0.201910831889889E+00
             -0.202342158676858E+00
             -0.203191303423627E+00
             -0.932617959027978E+00
              0.704919871356856E+00
             -0.426731774696662E+00
              0.405620503133987E+00
             -0.215931206131144E+00
              0.442858466245484E+00
              0.304846335702462E+00
             -0.142168311093093E+01
             -0.425873871495007E+00
             -0.136443396550673E+01
             -0.715496486953944E+00
              0.736106859014638E-01
             -0.350707883711043E+00
              0.619390242472097E+00
             -0.492300074958577E+00
              0.617268320783402E-01
              0.119128031083960E+00
              0.120603744190780E+01
              0.615964845646687E+00
             -0.581291445210123E+00
             -0.406084646977458E-01
              0.265570244855627E+00
              0.642279124920395E+00
             -0.136885943285492E-01
              0.984206487501075E+00
              0.473188656879071E+00
              0.157241997041393E+01
              0.576182737108031E-01
              0.105612343227328E+01
             -0.484662841949373E+00
             -0.677385065242803E+00
              0.232367159622626E-01
              0.202328046427171E+00
              0.386841344183432E+00
             -0.377218515470021E+00
             -0.182255441129850E+00
              0.402564160090058E+00
             -0.820475714671835E+00
             -0.105600541879763E+01
              0.139829741953002E+01
             -0.102261772568017E+00
             -0.616817693871694E+00
             -0.962431043661840E-01
             -0.246221762520170E+00
              0.786310204322153E+00
              0.630723976906308E+00
             -0.347949185540475E+00
             -0.598252309541358E-03
             -0.441478095573647E+00
             -0.617188844443042E+00
             -0.413556379560394E+00
             -0.170951954641960E+01
              0.333718488829673E-01
             -0.110503555327638E+01
             -0.103421211088151E+01
             -0.633693624923829E+00
              0.402164388182410E+00
             -0.665348804262642E+00
              0.433440801858480E+00
             -0.113640220913320E+01
              0.819373819605396E-03
             -0.743643824263820E+00
              0.142208346638915E+00
              0.132546824071886E+00
              0.618296977861512E+00
             -0.356863428778285E+00
             -0.320073263857635E+00
              0.561709472496375E+00
              0.102238581037254E+01
              0.565268914456717E+00
              0.200571419089949E+00
             -0.129902356166306E+01
             -0.279717587519602E+00
             -0.474250450128718E+00
             -0.106456480187330E+01
              0.737445204183484E+00
             -0.600879338885876E+00
             -0.137008164218112E+00
             -0.480524676103027E+00
             -0.171277279245308E+01
              0.980869643186459E+00
             -0.318295056757175E+00
              0.663565610428586E+00
             -0.129355935718035E+01
              0.113352619350183E+01
              0.112735676012655E+00
             -0.436063269850917E+00
              0.196154250374415E+00
             -0.338951033642804E+00
             -0.106165474338206E+01
              0.300429636010306E+00
              0.702018295482979E+00
             -0.348055004212497E-01
             -0.596771333863170E+00
             -0.278737332217408E+00
              0.365729002587897E+00
              0.656499126717326E+00
              0.106524138785238E+01
              0.378417172481939E+00
             -0.406334709069869E+00
              0.176787320484927E+01
              0.362137384410323E+00
              0.834026571846706E+00
             -0.289097149647786E+00
              0.514122563564293E+00
              0.430877800147469E+00
             -0.105764139583624E+01
             -0.394788753323480E+00
             -0.701732230626897E+00
             -0.740263719076383E+00
             -0.213751733594401E+00
             -0.136400128853047E+00
             -0.819748992098428E+00
             -0.190917554064789E+01
             -0.466350229891630E+00
              0.230073012910729E+00
              0.108512582661078E+00
              0.287787569950273E+00
              0.691915464235542E+00
              0.176193423317707E+00
              0.545277452146923E+00
             -0.750001700590488E+00
              0.737475079110794E+00
             -0.678308130413972E+00
             -0.114792685804834E+01
              0.369462432947939E+00
             -0.743255696887009E+00
             -0.686417275438877E+00
             -0.275986636263270E+01
             -0.117166859101127E+00
              0.146822724320531E+01
              0.685600209037391E+00
             -0.168395818748335E+00
             -0.191139518093565E+00
              0.789384077052129E+00
              0.110680091313461E+01
             -0.661799094617533E+00
             -0.234626781663017E+00
             -0.644002183278523E+00
             -0.571796912187896E+00
             -0.502087270539371E+00
              0.175848200972105E+00
              0.119860542832480E+01
             -0.112135318460809E+01
             -0.946163536953970E+00
              0.728090734791493E-01
             -0.274749072709374E+00
             -0.295815239984413E+00
             -0.154306523201420E+01
              0.110730010497484E+01
              0.325868584615986E+00
              0.175650554882233E+00
              0.911124045716719E+00
             -0.575624553560582E+00
              0.588597878807177E+00
              0.499599854031003E+00
              0.152182752423800E-01
             -0.144728765899159E+00
              0.133753440853292E+00
             -0.277438412835976E+00
              0.939641974136864E+00
             -0.683071427047318E+00
              0.819959580505071E+00
              0.157319137616061E+00
              0.304827779418226E+00
              0.335252096217976E+00
             -0.140811767104405E+01
              0.183633973159520E+00
             -0.115071183596069E+01
             -0.828332354894784E+00
             -0.820517770806132E+00
             -0.929699479953009E+00
             -0.945161625977242E-02
              0.341181652848156E+00
              0.869879110452002E+00
              0.120558749408888E+00
              0.255094118245903E+00
             -0.119839260430005E+01
             -0.488924010572674E+00
              0.546979083427133E+00
             -0.875127720347458E-01
             -0.706415127058526E-01
             -0.166133329055159E+00
              0.623266243737945E+00
             -0.156430784077519E+01
              0.237063884586678E+00
              0.349783114441959E+00
              0.672920320289789E+00
              0.642856824598723E+00
             -0.979114244138656E+00
              0.283657389290240E+00
              0.116228939401209E+00
              0.121328277685586E+00
              0.118146179361814E+00
             -0.328882740155229E+00
             -0.775500799993886E+00
              0.313717995665777E+00
              0.997616534908419E+00
              0.996123046457953E-02
              0.244587187920430E+00
              0.213987952882913E+00
             -0.543360042802190E+00
             -0.586725741450975E+00
             -0.214156017466467E+01
             -0.644444358722426E+00
             -0.103058528957196E+01
             -0.986267461562580E-01
             -0.118860019326251E+01
              0.130003988529651E+01
             -0.588473071078180E+00
             -0.955938262332046E+00
             -0.270339678631986E+01
              0.115833528887765E+01
              0.259857434509192E+00
              0.210441289333614E+00
             -0.105066667859814E+01
              0.577979056120856E-01
             -0.284855356824854E+00
             -0.535892797212781E+00
              0.156768656468069E+00
              0.557333268834308E+00
              0.793647422112369E-01
             -0.370608400731905E+00
              0.795264987329816E-01
              0.184614367391456E-01
              0.169661474541336E+00
             -0.115562722852108E+01
              0.128312430316346E+01
             -0.721934768029201E+00
             -0.456060214299192E+00
             -0.923727690878707E+00
             -0.191940048779488E+01
              0.781855246192371E-01
             -0.101701441369718E+01
             -0.297368894703005E+00
              0.520874583411841E+00
             -0.479658927157153E+00
             -0.218783698914136E+00
             -0.233088686572998E+00
             -0.324882708826927E+00
              0.710211444690435E-01
              0.889233460107445E+00
             -0.854934965218488E+00
              0.182582900697386E+01
             -0.443011203530851E+00
              0.546448743047656E+00
             -0.347828767367469E+00
              0.201822107896633E+00
             -0.212712209389800E+00
              0.762332206950084E+00
              0.108607748113180E+01
              0.313467224738582E+00
              0.737494112900374E+00
             -0.492617370515088E+00
             -0.143400027478034E+00
             -0.406303805880106E+00
              0.109456806460480E+01
              0.942871853173335E+00
              0.686321853476478E+00
             -0.212597818747225E+00
             -0.437020186793962E+00
              0.418775901933404E+00
             -0.510591430696215E+00
             -0.252165187827893E+00
             -0.954687953202691E-01
             -0.632655109239888E+00
              0.840510913144736E+00
             -0.198674796730214E+00
              0.625126776929628E+00
              0.408849875650436E+00
              0.253653147337020E+00
             -0.590684043007976E+00
              0.416376893547874E+00
             -0.240184391349525E+00
             -0.111941172846200E+00
             -0.127690264843885E-01
             -0.816352197448048E+00
              0.133539864399126E+01
             -0.461815332095849E+00
             -0.762017539272186E-03
              0.441743643180291E+00
              0.360795155912649E+00
              0.134498814590155E+01
             -0.383049514063702E+00
              0.129515773811408E+01
              0.114662039268676E+01
             -0.159530299016596E+01
              0.121273206188168E+00
             -0.315604311471388E+00
              0.213944190010783E+00
              0.686290188154115E-01
              0.391415796013502E+00
              0.111969692261889E+01
              0.175739280739789E+01
             -0.125093535039203E+01
              0.131091869258487E+01
             -0.176290623229308E+01
             -0.151252274007216E+01
             -0.265006499325192E+00
              0.145286233180006E-01
              0.137648669500926E+01
              0.537988999085435E+00
             -0.219378942715587E+00
             -0.142105654478807E+01
              0.115856172826757E+01
             -0.691576625359850E+00
              0.328175833086899E-01
             -0.901543880696267E-01
              0.225260099550266E+01
             -0.376769408030145E+00
             -0.182086843303767E+01
              0.527707450328901E+00
             -0.282233231922871E+01
              0.218429212003520E+00
             -0.672550009538303E+00
             -0.301973091473387E+00
             -0.449943936490196E+00
             -0.104008237204700E+01
              0.631084867659763E+00
             -0.640464078313816E+00
             -0.261447769979317E+00
             -0.129822158814501E+01
             -0.696106002696100E-01
             -0.956898525411699E+00
             -0.134037211709228E+01
             -0.178812928209452E+01
              0.119978943618909E+00
             -0.659405303188665E+00
              0.212213607796778E+00
             -0.238383646214023E+00
             -0.143799854615188E+01
             -0.111909933051635E+01
             -0.979661157563582E+00
             -0.103057610740085E+01
              0.895240547334900E+00
              0.881643542035571E-01
             -0.873470666701882E+00
             -0.440749648368179E+00
             -0.485415822640794E+00
              0.732352310459028E+00
             -0.531471420793987E+00
             -0.562874203786414E-01
             -0.563989623234587E+00
             -0.687786563196069E+00
             -0.733458945452880E+00
              0.703424850055752E+00
             -0.217458333113392E+00
             -0.160617614316421E+01
              0.133921841797206E+01
              0.777272532529559E+00
              0.439379541379834E-01
             -0.142474358816383E+01
             -0.129161781389233E+01
              0.698291460863505E-01
             -0.105398808798629E-02
             -0.584983585203855E+00
             -0.749642692940775E+00
              0.499865916436598E+00
             -0.812179801526351E-01
              0.468362871226482E+00
              0.826773645267430E+00
              0.602889362734406E+00
              0.417469670021817E+00
              0.371945734481736E+00
             -0.383466612190685E+00
             -0.272078343851800E+00
             -0.326383786668814E+00
             -0.675866777724391E+00
             -0.812228362113115E+00
             -0.103626827883247E+01
             -0.616256533033902E+00
             -0.230917821347491E+00
             -0.126051888265993E+01
             -0.329581155669221E+00
              0.630146570404654E+00
             -0.149964486367024E+01
              0.655233832463677E+00
              0.522229082888667E+00
             -0.127490382433053E+01
             -0.967320946160048E+00
             -0.412311815583748E+00
              0.201881971414657E+00
             -0.720401633917699E+00
              0.131587773928469E+01
              0.116628554177381E+01
             -0.134122510849170E+01
              0.699760123171856E+00
              0.630489752881868E+00
              0.160505987575899E+00
              0.321427463264408E+00
             -0.739174007634315E+00
             -0.272910404753723E+00
              0.121349728527859E+00
              0.362248582604648E+00
              0.706778291385604E+00
             -0.930541775576267E+00
             -0.204031395586932E+00
              0.273150441182948E+00
              0.203168210915699E+00
             -0.602493943591971E+00
              0.314626773914882E+00
             -0.425585962518427E+00
             -0.303119584250546E+00
             -0.248036325844634E-01
             -0.107312701139791E+01
             -0.337912788751860E-02
             -0.118821782041202E+00
             -0.281385580196792E+00
              0.300641879529676E+00
             -0.908087940607170E+00
              0.102654653766313E+01
             -0.357873345888418E+00
             -0.235099886826504E+01
             -0.148849742426426E+01
              0.590952179620869E+00
             -0.753814044487422E+00
             -0.384749540158936E+00
             -0.386921912993300E+00
             -0.342426478495828E+00
             -0.180203130258762E+01
              0.489387840563182E-02
             -0.107610885542270E+01
             -0.594475646587238E+00
              0.334284070357707E+00
              0.139165724471546E+01
              0.904489972218032E-01
              0.555277369413048E-01
              0.105297163246114E+01
             -0.103320579579055E+01
              0.469796078175910E+00
              0.101089864266533E+00
             -0.940748584137468E+00
             -0.559966267880806E+00
              0.327691184512336E+00
              0.639048172665866E-01
              0.301301878132332E+00
              0.246295560250741E+00
             -0.413311995145976E+00
             -0.593657206566355E+00
             -0.872294382757197E+00
              0.869768080798804E+00
             -0.119180123580059E+01
             -0.872982174727096E+00
              0.255316285532633E+00
             -0.145069810682493E+01
              0.416637729325391E+00
              0.105146347164271E+01
             -0.211883370502942E+00
              0.375085111260674E+00
             -0.608837690655679E+00
             -0.399129651037833E+00
              0.191527834628262E+00
              0.624181094527305E+00
             -0.632437816145785E+00
              0.375737643420999E+00
             -0.251000285186398E+00
              0.164328929944465E+00
              0.296236053095385E+00
              0.136710771846257E+00
             -0.225878348925961E+00
             -0.138171216827123E-01
              0.189248099329543E+00
              0.482742767872931E+00
             -0.123256668640419E+01
             -0.498639985066127E-01
              0.917177691648213E+00
             -0.151242999165350E+01
              0.572016810056233E+00
             -0.195890110007230E+01
             -0.208975627628039E+00
             -0.243955036777924E+00
             -0.279173928434631E-01
             -0.226711994862487E+00
             -0.482128358143571E+00
             -0.202807185650705E+00
              0.212978924080194E+00
             -0.450117966641064E+00
              0.181228130683850E+00
              0.158252690665580E+01
             -0.974281903807340E+00
             -0.434447273020499E+00
              0.745761189142928E+00
              0.355182286050112E+00
              0.744807575479366E+00
              0.366695731053706E+00
              0.259214783061859E+00
             -0.247260219439666E+00
             -0.860367451987152E+00
             -0.775902919008298E+00
             -0.644115287442681E+00
              0.115271161215944E+00
             -0.745152386421115E+00
             -0.197797260298858E+00
              0.103180176438959E+00
              0.432139312142128E+00
             -0.113852580635648E+00
              0.102570663469380E+01
             -0.117551111170111E+01
             -0.182060862936773E-02
             -0.135332364764118E+00
              0.556432261411842E+00
             -0.734142597733960E+00
             -0.486524835415577E+00
              0.203073602930331E+00
              0.766774521872348E+00
              0.132740350213090E+01
              0.503597925878343E+00
              0.811339207912316E+00
             -0.419176953216029E+00
              0.109019304915046E+01
              0.109484586011941E+01
             -0.113800527737098E-01
              0.516882772435386E+00
              0.652350360678726E+00
             -0.365190370845605E+00
              0.278098386665873E+00
              0.114822776025167E+01
             -0.346705202202937E+00
             -0.974996420366914E-01
             -0.107588188438654E+01
              0.380600873577744E+00
             -0.274469837855101E+00
              0.379874569055275E+00
              0.789404951607420E-02
             -0.674685864782279E+00
              0.781474887398523E+00
              0.681907319117404E+00
             -0.565551216627016E+00
              0.304976606027646E+00
             -0.104358035972191E+01
             -0.948876298684288E+00
              0.434860059884546E+00
             -0.118290421062401E+01
             -0.619216926583664E+00
             -0.294836169801727E-02
              0.149476711713086E+01
             -0.401419387729987E+00
             -0.182027505080422E+00
             -0.371593350071637E+00
              0.192920210673680E+01
              0.322400283542512E+00
             -0.745245259342084E+00
              0.123332620531063E+01
              0.108082980366757E+01
              0.571254592758121E+00
              0.139676620618328E+01
              0.153915785342485E+01
             -0.404895917143632E-01
             -0.500895715784648E+00
             -0.409060974619635E+00
              0.488617847043042E+00
              0.690110359820083E+00
             -0.129477494495774E+00
             -0.422027102453091E+00
             -0.980554678045983E+00
             -0.343200471563704E+00
             -0.811260833422121E+00
              0.602075666968983E+00
              0.308948432544667E+00
              0.105250198638440E+01
              0.249513217788513E+00
             -0.390004140835940E+00
             -0.160474309074214E+00
              0.686078792964775E+00
              0.168114972879209E+00
              0.108462977394295E+01
              0.951299362430418E+00
             -0.136174217588836E+00
             -0.159340336143930E+00
             -0.178050564557013E+01
              0.849383835045535E+00
              0.128397389668606E-01
              0.100159194032465E+01
             -0.454758081920945E+00
             -0.116065745485616E+01
              0.340199036693047E+00
              0.127347025094263E+01
             -0.437029178710995E+00
              0.114418661790262E+01
             -0.124348099914136E+01
             -0.458474308503651E+00
             -0.150379168999930E+01
              0.264605991138252E+00
              0.555774490484415E-01
              0.168818270194997E+00
             -0.108614195840825E+01
              0.163985594965006E+01
              0.936480274389502E+00
              0.100020613624816E+00
             -0.979329046473959E+00
              0.346139458675236E+00
             -0.292058184340755E+00
             -0.274476342136103E+00
             -0.498287149551695E+00
              0.282285275933785E+00
             -0.316499685818307E+00
             -0.318120807712477E+00
              0.420086430302675E+00
              0.402338597248779E+00
             -0.156878659904200E+01
              0.343321256081913E+00
              0.114984980014556E+01
              0.736997033572343E+00
             -0.221722394815106E+00
             -0.531830771487878E-01
             -0.636252467348860E+00
              0.959463960791954E+00
              0.140526578430111E+00
             -0.375479901886155E-01
             -0.106739656274565E+00
              0.189127929389929E+01
             -0.149470242352809E+00
              0.365782663032543E+00
              0.130280801487860E+01
              0.165698873573944E+01
              0.103459014926579E+01
              0.665750944794112E+00
             -0.112277503166183E+01
             -0.807434958504811E+00
              0.639981222067928E+00
              0.993313724458273E-01
              0.532541640559593E+00
              0.208478862438324E+00
              0.113012929147043E+01
             -0.137633350986457E+01
             -0.852521089268300E+00
             -0.207848264985137E+00
             -0.152427272112653E+01
              0.347380892119766E+00
              0.828791977378387E+00
             -0.231181065350192E-01
             -0.349336332220939E+00
              0.348533324954584E+00
              0.232207590679796E+01
              0.567543521762952E+00
              0.317484205979397E+00
             -0.813547941292363E+00
             -0.988589921784850E+00
             -0.215149203601389E+00
              0.494551666532013E+00
             -0.101514601038463E+00
              0.466879091857033E+00
              0.616962097823578E+00
             -0.105393573947788E+01
              0.471953421973380E+00
              0.535204977815237E+00
              0.972853772719542E+00
             -0.182592563458096E+00
              0.115455510382504E+00
             -0.120807482591567E+00
             -0.764891284103800E+00
             -0.126574613612962E+01
              0.130574212731296E+01
             -0.186531645148226E+00
             -0.899118271686818E+00
              0.159818985512664E+00
             -0.539546863266095E+00
              0.146586600576629E+01
             -0.401782570035234E+00
             -0.659051462862968E+00
              0.650506945015099E+00
             -0.278043410352746E+00
              0.819353596671780E+00
              0.528312926792136E-01
              0.157856498443908E+01
              0.928760719250644E+00
              0.242489331026481E+00
             -0.697192622252472E+00
              0.506604899646504E+00
             -0.935556974975487E+00
             -0.659092799814109E-01
              0.111836767391556E+01
             -0.434306446902102E+00
             -0.751030813235494E+00
             -0.406104345564930E+00
              0.886519652218732E+00
              0.199577099144044E+00
             -0.139288543189664E+01
              0.595914374198434E+00
              0.803726659363981E-01
              0.202032663336159E+00
             -0.840244979103154E+00
              0.194036206713766E+00
              0.592074240234571E+00
              0.773814036774878E+00
              0.113745499583544E+01
              0.625951725191371E+00
              0.140121339286378E+00
             -0.973379281398587E+00
             -0.714592114915373E+00
             -0.109145827341639E+01
             -0.270389995602327E+00
              0.594482177753870E+00
              0.391151708516047E-02
              0.887831848261508E+00
             -0.550096563591872E+00
              0.296993892051990E+00
             -0.423711298441996E+00
             -0.467009428439931E+00
              0.102382994911994E+01
              0.864241809822959E-01
              0.108477392228457E+01
              0.889817477294930E-01
              0.320798950937377E+00
             -0.283909091469599E+00
              0.104228778001332E+01
             -0.303567929559305E+00
              0.634930817617682E-02
             -0.134822185453568E+01
             -0.109943708545808E+00
              0.119583889611958E+01
              0.109045301875659E+01
              0.444947973218766E+00
             -0.289814192984629E+00
              0.105395848755203E+00
             -0.424041300046779E+00
             -0.380286454883118E+00
              0.155597392588434E+01
              0.149786753320939E+00
             -0.520179242193200E+00
             -0.181843930102142E+01
             -0.704477307507289E+00
             -0.658064408478764E+00
             -0.104028308982931E+01
             -0.103163850794384E+01
             -0.122319170320237E+01
             -0.777103740895867E+00
             -0.447264589646524E+00
             -0.846147056412676E+00
              0.755720756913370E+00
             -0.272378450925711E+00
             -0.140440296114350E+01
              0.704335634620910E+00
             -0.589466969927591E+00
             -0.137420386648209E+01
              0.175007998346198E+01
             -0.455335187927155E+00
              0.235675313031544E+00
              0.629852570864024E+00
              0.266000447014590E+00
              0.467139399739607E+00
              0.153264470949193E-01
              0.242819700156148E-01
             -0.223789964242477E+00
             -0.128098395860964E+01
              0.185200221001708E+00
             -0.205087578846420E+01
              0.128154528048352E+01
             -0.690988235286605E+00
             -0.337203746389984E+00
             -0.374263840584886E+00
              0.407784417353942E+00
             -0.254590669625085E+00
              0.474947810057700E+00
             -0.102783664319460E+01
              0.615980154372810E+00
              0.759647413719144E+00
              0.123970076733028E+00
              0.165525361622920E+00
              0.373608504244422E+00
              0.189661621438754E+00
              0.497012384704139E+00
             -0.665740197304885E-01
             -0.133536907442556E+01
              0.165768145061863E+00
             -0.624857807586417E+00
             -0.633637218600240E-01
              0.988976075480448E+00
             -0.136347539294206E+01
              0.443685385546182E-01
              0.679806346759779E-01
              0.164728372444667E+00
              0.521403952635663E+00
             -0.214150948600140E+00
              0.145243304414864E+01
              0.607886844131897E+00
             -0.240825164297531E+00
             -0.142543886950938E+00
              0.124107034683989E+00
              0.135184456847767E+01
             -0.831965119158440E+00
             -0.173722397444537E+01
              0.502652781104957E+00
             -0.133463435610515E+00
             -0.280898890548186E+00
              0.339127669842428E+00
              0.128983928256004E+01
              0.711139608331831E+00
             -0.291521113646920E+00
             -0.943628587787344E+00
             -0.234922814584511E+00
              0.464915752916716E+00
             -0.327120019155767E+00
             -0.132160695030002E+01
             -0.180682644722037E+00
             -0.171472184412890E+01
             -0.910499791024077E+00
              0.152595785758553E+01
             -0.919247704657371E+00
             -0.125244089166313E+01
             -0.913726278738525E+00
             -0.704526572249658E+00
              0.597617406851449E+00
              0.148304600212640E+01
             -0.191011285069712E+00
              0.452791955724269E+00
             -0.368862542238658E+00
             -0.118114054553238E+01
              0.891019419711057E+00
             -0.846293482002304E+00
              0.404159608086562E+00
              0.472374978399663E+00
             -0.288654911653921E+00
              0.621100067618833E+00
              0.658698667304484E+00
              0.214029321655724E+01
             -0.155693264247990E+00
             -0.101179351026347E+01
             -0.115570883821983E+01
             -0.355376820435924E+00
             -0.768747555948984E+00
              0.157833944196303E+01
             -0.778721500400133E+00
              0.183395696696088E+00
              0.205915439848896E-01
             -0.322584747025013E+00
             -0.151036751585687E+01
             -0.111887708148533E+00
              0.174439362559921E+01
              0.415152210653157E+00
              0.127216834442400E+00
             -0.105047275079273E+01
             -0.937557071926623E+00
             -0.346257938711692E+00
              0.771128811846284E+00
             -0.469701149702368E+00
              0.172954131489915E+01
             -0.849001022472092E+00
              0.348484527740657E+00
             -0.196428940095632E+00
             -0.105183452540881E+01
              0.124402488213843E+00
             -0.989961401645186E+00
             -0.127770942242332E+01
              0.212638562282177E+00
              0.209975640967430E-01
              0.855153804569373E+00
              0.485648853251852E+00
             -0.613418989266913E+00
              0.366476087246935E+00
             -0.156388284124837E+01
             -0.803130745259507E+00
              0.160811976722096E+01
              0.376857667207173E-01
             -0.597132399978175E-01
             -0.408701731363564E+00
             -0.102132994112232E-01
             -0.230929390211282E+00
              0.161772648549988E+01
              0.715753210947351E+00
             -0.129609588021695E+00
              0.368387813368338E-01
             -0.647494574462430E+00
             -0.197218411703465E+00
             -0.106193074917106E+01
              0.906987585915732E+00
              0.116822528865480E+00
              0.116373611834422E+00
              0.344186099499654E+00
             -0.266002632999795E+00
             -0.411837774501731E+00
              0.196669658064590E+00
             -0.197011210114130E+01
             -0.157514277776419E+00
             -0.175080944870459E+00
             -0.101875027027656E+00
              0.816974871905116E+00
              0.113655271980552E+01
              0.319002212530807E+00
             -0.161312639097052E+01
              0.110096349466927E+01
             -0.414183934720391E+00
             -0.642441293134425E+00
             -0.151785358363158E+01
             -0.430992995938442E+00
              0.112389098347456E+01
              0.599052458758843E+00
              0.291235247823157E+00
              0.627925782630374E+00
             -0.978985696305164E+00
             -0.872906328286977E+00
              0.110251451079241E+01
              0.721046479209161E+00
              0.802142574876725E+00
              0.182003096727376E+00
              0.186769547577566E+00
              0.912599137529276E+00
              0.171194105849281E+01
             -0.271545533351462E+00
              0.720072394881921E+00
             -0.565866253880529E+00
             -0.767653474175729E+00
             -0.613272589890584E+00
             -0.599712526317203E+00
             -0.252581957927068E+00
             -0.815586078968189E+00
             -0.320965706211812E+00
             -0.222103982129928E+01
              0.536230815095521E+00
              0.505202668941361E+00
             -0.619671546253950E-01
             -0.638020584905533E+00
             -0.309050298581099E+00
             -0.994909011221696E+00
              0.787554326240603E-01
              0.136891679919607E+01
             -0.320748834324027E+00
             -0.329927010717013E+00
              0.325191197943280E+00
             -0.890164135266856E+00
              0.147535807488398E+01
              0.266116498588276E+00
              0.851431715907713E-01
              0.900676519426779E+00
             -0.125795485869572E+00
              0.103137958453573E+01
              0.365034498309584E+00
             -0.535712298627100E-02
              0.240354352239018E+00
             -0.199233905505985E+00
              0.114210121627227E+01
              0.117830711850789E+00
              0.385812781153937E+00
             -0.148876384732977E+00
              0.186257591533729E+00
             -0.164280182265816E+01
             -0.609403828087446E+00
             -0.874406149052705E+00
              0.860428871830876E+00
             -0.626928828387274E+00
             -0.942539946902174E+00
              0.104904578022199E+01
             -0.241483905346797E+00
              0.703242991314784E+00
             -0.154146760617992E+01
              0.284226802949533E+00
              0.574516966964667E-01
              0.123971713405819E+00
             -0.253917429534902E+00
             -0.109413494885427E+00
              0.879124108021267E+00
              0.474806488784889E-01
             -0.940029461601102E+00
             -0.383740429943978E+00
              0.299826973242183E+00
             -0.199081448125429E+01
             -0.148716530507280E+01
              0.759582027018357E-02
              0.300039074509298E+00
             -0.906772103267259E+00
              0.280047486787067E-01
              0.176389404889557E+01
              0.488686589686068E+00
             -0.925627697689716E+00
              0.132847318643424E+00
             -0.187335110595853E+00
              0.234039236818151E+00
             -0.633933485751301E+00
              0.411726155567495E+00
              0.402221552948988E+00
             -0.161240597607109E+00
              0.197368916310778E+01
             -0.432849645470745E-01
             -0.531728759197696E+00
              0.578131239882147E+00
              0.734788273842883E+00
             -0.540693924518574E+00
             -0.117238523661704E-01
              0.170537108043520E+01
             -0.199334467769106E-01
              0.897021030853542E+00
              0.291318803306602E+00
             -0.109855372178502E+00
             -0.239244553587911E+00
              0.807562425401455E+00
             -0.104652410163385E+01
             -0.299532596590808E-01
             -0.357017695999109E+00
             -0.692676913005130E+00
              0.188410122751216E+00
              0.440304961185299E+00
             -0.561391283487183E-01
             -0.282771521901735E-01
             -0.731301742520134E+00
              0.243350651738272E+00
             -0.827063634306491E-02
             -0.370439265186370E+00
             -0.346196497999774E+00
              0.269673628310520E+00
              0.973169745583924E-02
             -0.679573605604700E+00
             -0.187501647079619E+01
              0.121633943371311E+00
              0.231502093033897E+00
             -0.882648059591973E+00
             -0.450385742911617E+00
              0.143561298011574E+01
              0.245824653486684E+00
              0.802585041152289E+00
              0.213911054611912E+00
              0.717599168624621E+00
              0.386798570993552E-01
             -0.690066274278691E+00
             -0.249735824791690E+00
              0.813773493952965E-01
              0.562296260099632E+00
              0.127698162155006E+01
              0.857267232288625E+00
              0.642269356152356E-01
              0.194980686660809E+00
              0.105102549920183E+01
              0.503785748978932E+00
             -0.117978240052269E+01
             -0.482821118420775E+00
              0.170925912672036E+00
              0.188874997022783E+00
              0.439094706529650E+00
             -0.877223564210743E+00
              0.733664767944280E-01
              0.737481097221847E+00
              0.845455440497120E+00
             -0.732727412242925E+00
              0.806483017153461E-01
             -0.459144346895775E-01
             -0.378796741598771E+00
             -0.411327976609597E+00
             -0.178165301180177E+00
             -0.253517280210031E+00
              0.208414284509839E+00
              0.732697637689984E+00
             -0.572958321214419E+00
              0.140439957518910E+01
              0.580935443619367E+00
              0.471221421286968E+00
              0.653715865293753E+00
              0.402993426277925E+00
              0.628697845268388E+00
              0.967173187030215E+00
             -0.828012467697307E+00
              0.109550642906052E+01
             -0.198685423862011E+01
              0.548727637194070E+00
             -0.183006788858924E+01
              0.139562927548445E+01
              0.137640901873400E+01
             -0.141764938634030E+00
             -0.807877875903379E+00
             -0.752756168354054E+00
             -0.908744858083322E+00
             -0.114678583773172E+01
              0.954224389664225E+00
              0.749957816710999E+00
              0.424380408482217E+00
              0.408067187748924E+00
              0.808888296868532E+00
             -0.719946732729841E+00
             -0.245006218291397E+00
              0.910864282211883E+00
             -0.211909151554567E+00
              0.859037694286997E+00
              0.136902594076694E+01
             -0.628886156256058E-01
             -0.132779876940692E+01
              0.116974073056252E+00
              0.224730550994649E-01
             -0.187514757020851E+00
              0.658426670259473E-01
             -0.112051135372709E+01
             -0.106927818618312E+00
              0.252110565470949E+00
              0.271100601017078E+00
              0.880254251829650E+00
             -0.748069219620329E+00
              0.851356540775294E+00
             -0.654222819821018E+00
              0.492653718629326E+00
              0.776193805741426E+00
 
 BEEF-vdW xc energy contributions
           1 :   -12.0208462524042     
           2 :    9.80202738076622     
           3 :   -6.58286867121583     
           4 :    3.54437855608116     
           5 :   -1.29428569474649     
           6 :  -3.098312848131712E-002
           7 :   0.570380029151343     
           8 :  -0.619597782686848     
           9 :   0.493415299444758     
          10 :  -0.408984443069574     
          11 :   0.422614402401074     
          12 :  -0.472776839866574     
          13 :   0.469219210716412     
          14 :  -0.370880664228618     
          15 :   0.198542672049324     
          16 :  -1.083602187919119E-002
          17 :  -0.136756358771551     
          18 :   0.215954143697383     
          19 :  -0.231759216622526     
          20 :   0.206979859765411     
          21 :  -0.165091821385490     
          22 :   0.115471833393839     
          23 :  -5.640002911741249E-002
          24 :  -1.841017046022309E-002
          25 :   0.103143861993422     
          26 :  -0.169817324074980     
          27 :   0.192099974144732     
          28 :  -0.178441642348991     
          29 :   0.157559072336269     
          30 :  -0.141078359662648     
          31 :   -1.62963645259510     
          32 :  -0.998677177504119     

     Writing output data file ./pwscf.save/
 
     init_run     :     65.42s CPU     67.84s WALL (       1 calls)
     electrons    :    462.94s CPU    502.03s WALL (       1 calls)
     forces       :     25.80s CPU     27.98s WALL (       1 calls)

     Called by init_run:
     wfcinit      :      1.78s CPU      1.83s WALL (       1 calls)
     potinit      :     55.40s CPU     57.23s WALL (       1 calls)
     hinit0       :      6.77s CPU      6.87s WALL (       1 calls)

     Called by electrons:
     c_bands      :     79.89s CPU     80.70s WALL (      14 calls)
     sum_band     :     31.99s CPU     37.08s WALL (      14 calls)
     v_of_rho     :    287.50s CPU    313.14s WALL (      15 calls)
     newd         :     12.87s CPU     18.08s WALL (      15 calls)
     PAW_pot      :      1.98s CPU      1.98s WALL (      15 calls)
     mix_rho      :     98.81s CPU    103.19s WALL (      14 calls)
     vdW_kernel   :     33.89s CPU     33.89s WALL (       1 calls)

     Called by c_bands:
     init_us_2    :      1.16s CPU      1.18s WALL (      29 calls)
     regterg      :     77.25s CPU     78.06s WALL (      14 calls)

     Called by *egterg:
     rdiaghg      :      0.02s CPU      0.02s WALL (     126 calls)
     h_psi        :     69.59s CPU     69.61s WALL (     127 calls)
     s_psi        :      1.85s CPU      1.85s WALL (     127 calls)
     g_psi        :      0.26s CPU      0.26s WALL (     112 calls)

     Called by h_psi:
     h_psi:calbec :      1.67s CPU      1.67s WALL (     127 calls)
     vloc_psi     :     65.67s CPU     65.67s WALL (     127 calls)
     add_vuspsi   :      1.88s CPU      1.88s WALL (     127 calls)

     General routines
     calbec       :      1.99s CPU      1.99s WALL (     145 calls)
     fft          :    253.84s CPU    253.85s WALL (    2814 calls)
     ffts         :     41.13s CPU     41.13s WALL (     475 calls)
     fftw         :     61.55s CPU     61.55s WALL (     704 calls)
 
     Parallel routines
 
     PWSCF        :  17m53.40s CPU  19m33.85s WALL

 
   This run was terminated on:  23:22:52   3Jan2023            

=------------------------------------------------------------------------------=
   JOB DONE.
=------------------------------------------------------------------------------=
