
     Program PWSCF v.6.7MaX starts on  3Jan2023 at 22:59:45 

     This program is part of the open-source Quantum ESPRESSO suite
     for quantum simulation of materials; please cite
         "P. Giannozzi et al., J. Phys.:Condens. Matter 21 395502 (2009);
         "P. Giannozzi et al., J. Phys.:Condens. Matter 29 465901 (2017);
          URL http://www.quantum-espresso.org", 
     in publications or presentations arising from this work. More details at
     http://www.quantum-espresso.org/quote

     Parallel version (MPI), running on     1 processors

     MPI processes distributed on     1 nodes
     Reading input from chcch3-gas-ensemble.in
Warning: card &CELL ignored
Warning: card / ignored

     Current dimensions of program PWSCF are:
     Max number of different atomic species (ntypx) = 10
     Max number of k-points (npk) =  40000
     Max angular momentum in pseudopotentials (lmaxx) =  3
     file C.pbe-n-kjpaw_psl.1.0.0.UPF: wavefunction(s)  2S 2P renormalized
     file H.pbe-kjpaw_psl.1.0.0.UPF: wavefunction(s)  1S renormalized

     **************************************************************************
     Initializing libbeef V0.1.2 with the BEEF-vdW functional.
     Citation: Wellendorff et al., PRB 85, 235149 (2012).
     **************************************************************************


     IMPORTANT: XC functional enforced from input :
     Exchange-correlation= BEEF-VDW
                           (   1   4  43  14   2   0   0)
     Any further DFT definition will be discarded
     Please, verify this is what you really want


     gamma-point specific algorithms are used

     Subspace diagonalization in iterative solution of the eigenvalue problem:
     a serial algorithm will be used

 
     G-vector sticks info
     --------------------
     sticks:   dense  smooth     PW     G-vecs:    dense   smooth      PW
     Sum       35765   35765   8953              4823535  4823535  603105
 


     bravais-lattice index     =            0
     lattice parameter (alat)  =      40.9007  a.u.
     unit-cell volume          =   76825.6962 (a.u.)^3
     number of atoms/cell      =            7
     number of atomic types    =            2
     number of electrons       =        16.00
     number of Kohn-Sham states=           12
     kinetic-energy cutoff     =      60.0000  Ry
     charge density cutoff     =     240.0000  Ry
     scf convergence threshold =      1.0E-06
     mixing beta               =       0.7000
     number of iterations used =            8  local-TF  mixing
     Exchange-correlation= BEEF-VDW
                           (   1   4  43  14   2   0   0)

     celldm(1)=  40.900697  celldm(2)=   0.000000  celldm(3)=   0.000000
     celldm(4)=   0.000000  celldm(5)=   0.000000  celldm(6)=   0.000000

     crystal axes: (cart. coord. in units of alat)
               a(1) = (   1.000000   0.000000   0.000000 )  
               a(2) = (   0.000000   1.119470   0.000000 )  
               a(3) = (   0.000000   0.000000   1.003002 )  

     reciprocal axes: (cart. coord. in units 2 pi/alat)
               b(1) = (  1.000000  0.000000  0.000000 )  
               b(2) = (  0.000000  0.893280  0.000000 )  
               b(3) = (  0.000000  0.000000  0.997007 )  


     PseudoPot. # 1 for C  read from file:
     /users/bkreitz1/quantum-espresso/potentials/C.pbe-n-kjpaw_psl.1.0.0.UPF
     MD5 check sum: a169b0ebad56f5ec0d79c4633f80bf22
     Pseudo is Projector augmented-wave + core cor, Zval =  4.0
     Generated using 'atomic' code by A. Dal Corso  v.6.7MaX
     Shape of augmentation charge: PSQ
     Using radial grid of 1073 points,  4 beta functions with: 
                l(1) =   0
                l(2) =   0
                l(3) =   1
                l(4) =   1
     Q(r) pseudized with 0 coefficients 


     PseudoPot. # 2 for H  read from file:
     /users/bkreitz1/quantum-espresso/potentials/H.pbe-kjpaw_psl.1.0.0.UPF
     MD5 check sum: ae98473e6dc62675f0d0baffdab24f65
     Pseudo is Projector augmented-wave, Zval =  1.0
     Generated using 'atomic' code by A. Dal Corso  v.6.7MaX
     Shape of augmentation charge: PSQ
     Using radial grid of  929 points,  2 beta functions with: 
                l(1) =   0
                l(2) =   0
     Q(r) pseudized with 0 coefficients 


     atomic species   valence    mass     pseudopotential
        C              4.00    12.01100     C ( 1.00)
        H              1.00     1.00800     H ( 1.00)

     No symmetry found



   Cartesian axes

     site n.     atom                  positions (alat units)
         1           C   tau(   1) = (   0.4768738   0.5093132   0.4728090  )
         2           C   tau(   2) = (   0.4819002   0.5639564   0.4824963  )
         3           C   tau(   3) = (   0.4882426   0.6299707   0.4934473  )
         4           H   tau(   4) = (   0.4726284   0.4612738   0.4640385  )
         5           H   tau(   5) = (   0.5361992   0.6446546   0.4876740  )
         6           H   tau(   6) = (   0.4600855   0.6564704   0.4609701  )
         7           H   tau(   7) = (   0.4737872   0.6422657   0.5406648  )

     number of k points=     1  Gaussian smearing, width (Ry)=  0.0050
                       cart. coord. in units 2pi/alat
        k(    1) = (   0.0000000   0.0000000   0.0000000), wk =   2.0000000

     Dense  grid:  2411768 G-vectors     FFT dimensions: ( 216, 225, 216)

     Estimated max dynamical RAM per process >       3.88 GB

     Initial potential from superposition of free atoms

     starting charge   15.99984, renormalised to   16.00000

     negative rho (up, down):  9.089E-03 0.000E+00


     %%%%%%%%%%%%%%%%%%%%%%%%%%%%%%%%%%%%%%%%%%%%%%%%%%%%%%%%%%%%%%%%%%%%%%%%
     %                                                                      %
     % You are using vdW-DF, which was implemented by the Thonhauser group. %
     % Please cite the following two papers that made this development      %
     % possible and the two reviews that describe the various versions:     %
     %                                                                      %
     %   T. Thonhauser et al., PRL 115, 136402 (2015).                      %
     %   T. Thonhauser et al., PRB 76, 125112 (2007).                       %
     %   K. Berland et al., Rep. Prog. Phys. 78, 066501 (2015).             %
     %   D.C. Langreth et al., J. Phys.: Condens. Matter 21, 084203 (2009). %
     %                                                                      %
     %                                                                      %
     % If you are calculating the stress with vdW-DF, please also cite:     %
     %                                                                      %
     %   R. Sabatini et al., J. Phys.: Condens. Matter 24, 424209 (2012).   %
     %                                                                      %
     %%%%%%%%%%%%%%%%%%%%%%%%%%%%%%%%%%%%%%%%%%%%%%%%%%%%%%%%%%%%%%%%%%%%%%%%


     Starting wfcs are   16 randomized atomic wfcs
     Checking if some PAW data can be deallocated... 

     total cpu time spent up to now is       71.2 secs

     Self-consistent Calculation

     iteration #  1     ecut=    60.00 Ry     beta= 0.70
     Davidson diagonalization with overlap
     ethr =  1.00E-02,  avg # of iterations =  3.0

     negative rho (up, down):  7.651E-03 0.000E+00

     total cpu time spent up to now is      109.0 secs

     total energy              =     -61.81296669 Ry
     estimated scf accuracy    <       0.95151014 Ry

     iteration #  2     ecut=    60.00 Ry     beta= 0.70
     Davidson diagonalization with overlap
     ethr =  5.95E-03,  avg # of iterations =  2.0

     negative rho (up, down):  5.109E-03 0.000E+00

     total cpu time spent up to now is      145.8 secs

     total energy              =     -61.70716308 Ry
     estimated scf accuracy    <       0.26901163 Ry

     iteration #  3     ecut=    60.00 Ry     beta= 0.70
     Davidson diagonalization with overlap
     ethr =  1.68E-03,  avg # of iterations =  5.0

     negative rho (up, down):  2.960E-03 0.000E+00

     total cpu time spent up to now is      185.1 secs

     total energy              =     -61.74533908 Ry
     estimated scf accuracy    <       0.03964006 Ry

     iteration #  4     ecut=    60.00 Ry     beta= 0.70
     Davidson diagonalization with overlap
     ethr =  2.48E-04,  avg # of iterations =  4.0

     negative rho (up, down):  2.762E-02 0.000E+00

     total cpu time spent up to now is      225.0 secs

     total energy              =     -61.73835155 Ry
     estimated scf accuracy    <       0.02294752 Ry

     iteration #  5     ecut=    60.00 Ry     beta= 0.70
     Davidson diagonalization with overlap
     ethr =  1.43E-04,  avg # of iterations =  7.0

     negative rho (up, down):  4.525E-02 0.000E+00

     total cpu time spent up to now is      264.9 secs

     total energy              =     -61.73642730 Ry
     estimated scf accuracy    <       0.01219489 Ry

     iteration #  6     ecut=    60.00 Ry     beta= 0.70
     Davidson diagonalization with overlap
     ethr =  7.62E-05,  avg # of iterations =  6.0

     negative rho (up, down):  1.410E-01 0.000E+00

     total cpu time spent up to now is      304.7 secs

     total energy              =     -61.73761612 Ry
     estimated scf accuracy    <       0.00575368 Ry

     iteration #  7     ecut=    60.00 Ry     beta= 0.70
     Davidson diagonalization with overlap
     ethr =  3.60E-05,  avg # of iterations =  9.0

     negative rho (up, down):  1.194E-01 0.000E+00

     total cpu time spent up to now is      347.1 secs

     total energy              =     -61.73727112 Ry
     estimated scf accuracy    <       0.00229220 Ry

     iteration #  8     ecut=    60.00 Ry     beta= 0.70
     Davidson diagonalization with overlap
     ethr =  1.43E-05,  avg # of iterations =  2.0

     negative rho (up, down):  1.170E-01 0.000E+00

     total cpu time spent up to now is      385.4 secs

     total energy              =     -61.73658786 Ry
     estimated scf accuracy    <       0.00126203 Ry

     iteration #  9     ecut=    60.00 Ry     beta= 0.70
     Davidson diagonalization with overlap
     ethr =  7.89E-06,  avg # of iterations =  9.0

     negative rho (up, down):  8.039E-02 0.000E+00

     total cpu time spent up to now is      427.8 secs

     total energy              =     -61.73560918 Ry
     estimated scf accuracy    <       0.00074524 Ry

     iteration # 10     ecut=    60.00 Ry     beta= 0.70
     Davidson diagonalization with overlap
     ethr =  4.66E-06,  avg # of iterations = 15.0

     negative rho (up, down):  7.240E-02 0.000E+00

     total cpu time spent up to now is      472.0 secs

     total energy              =     -61.73553665 Ry
     estimated scf accuracy    <       0.00032242 Ry

     iteration # 11     ecut=    60.00 Ry     beta= 0.70
     Davidson diagonalization with overlap
     ethr =  2.02E-06,  avg # of iterations = 19.0

     negative rho (up, down):  4.249E-02 0.000E+00

     total cpu time spent up to now is      515.4 secs

     total energy              =     -61.73530934 Ry
     estimated scf accuracy    <       0.00012944 Ry

     iteration # 12     ecut=    60.00 Ry     beta= 0.70
     Davidson diagonalization with overlap
     c_bands:  1 eigenvalues not converged
     ethr =  8.09E-07,  avg # of iterations = 20.0

     negative rho (up, down):  3.443E-02 0.000E+00

     total cpu time spent up to now is      562.3 secs

     total energy              =     -61.73532851 Ry
     estimated scf accuracy    <       0.00006343 Ry

     iteration # 13     ecut=    60.00 Ry     beta= 0.70
     Davidson diagonalization with overlap
     ethr =  3.96E-07,  avg # of iterations =  4.0

     negative rho (up, down):  2.598E-02 0.000E+00

     total cpu time spent up to now is      600.6 secs

     total energy              =     -61.73534519 Ry
     estimated scf accuracy    <       0.00005119 Ry

     iteration # 14     ecut=    60.00 Ry     beta= 0.70
     Davidson diagonalization with overlap
     ethr =  3.20E-07,  avg # of iterations = 18.0

     negative rho (up, down):  2.103E-02 0.000E+00

     total cpu time spent up to now is      645.2 secs

     total energy              =     -61.73535532 Ry
     estimated scf accuracy    <       0.00001143 Ry

     iteration # 15     ecut=    60.00 Ry     beta= 0.70
     Davidson diagonalization with overlap
     ethr =  7.14E-08,  avg # of iterations = 13.0

     negative rho (up, down):  1.963E-02 0.000E+00

     total cpu time spent up to now is      685.3 secs

     total energy              =     -61.73536360 Ry
     estimated scf accuracy    <       0.00000410 Ry

     iteration # 16     ecut=    60.00 Ry     beta= 0.70
     Davidson diagonalization with overlap
     ethr =  2.56E-08,  avg # of iterations =  1.0

     negative rho (up, down):  1.770E-02 0.000E+00

     total cpu time spent up to now is      721.5 secs

     total energy              =     -61.73536440 Ry
     estimated scf accuracy    <       0.00000177 Ry

     iteration # 17     ecut=    60.00 Ry     beta= 0.70
     Davidson diagonalization with overlap
     ethr =  1.10E-08,  avg # of iterations =  2.0

     negative rho (up, down):  1.763E-02 0.000E+00

     total cpu time spent up to now is      757.9 secs

     total energy              =     -61.73536317 Ry
     estimated scf accuracy    <       0.00000180 Ry

     iteration # 18     ecut=    60.00 Ry     beta= 0.70
     Davidson diagonalization with overlap
     ethr =  1.10E-08,  avg # of iterations =  2.0

     negative rho (up, down):  1.694E-02 0.000E+00

     total cpu time spent up to now is      785.9 secs

     End of self-consistent calculation

          k = 0.0000 0.0000 0.0000 (301553 PWs)   bands (ev):

   -19.6993 -17.6816 -13.3267 -11.4284 -10.8794 -10.8586  -6.7220  -6.7190
    -0.9808  -0.3923  -0.3891  -0.3844

     the Fermi energy is    -5.1451 ev

!    total energy              =     -61.73536447 Ry

     total all-electron energy =      -235.027638 Ry
     estimated scf accuracy    <       0.00000039 Ry
     smearing contrib. (-TS)   =      -0.00000000 Ry
     internal energy E=F+TS    =     -61.73536447 Ry

     The total energy is F=E-TS. E is the sum of the following terms:
     one-electron contribution =    -146.00152325 Ry
     hartree contribution      =      75.02317875 Ry
     xc contribution           =     -17.30216201 Ry
     ewald contribution        =      46.18972091 Ry
     one-center paw contrib.   =     -19.64457888 Ry

     convergence has been achieved in  18 iterations

     negative rho (up, down):  1.694E-02 0.000E+00

     Forces acting on atoms (cartesian axes, Ry/au):

     atom    1 type  1   force =     0.00023168   -0.00047083    0.00074230
     atom    2 type  1   force =    -0.00039850    0.00075664   -0.00015745
     atom    3 type  1   force =    -0.00216238    0.00213066    0.00901992
     atom    4 type  2   force =    -0.00008752    0.00024171    0.00011709
     atom    5 type  2   force =     0.00003221   -0.00005998    0.00014314
     atom    6 type  2   force =    -0.00028573   -0.00018021    0.00092440
     atom    7 type  2   force =     0.00267024   -0.00241799   -0.01078940

     Total force =     0.014920     Total SCF correction =     0.000071

     negative rho (up, down):  1.694E-02 0.000E+00

     negative rho (up, down):  1.694E-02 0.000E+00

     negative rho (up, down):  1.694E-02 0.000E+00

     negative rho (up, down):  1.694E-02 0.000E+00

     negative rho (up, down):  1.694E-02 0.000E+00

     negative rho (up, down):  1.694E-02 0.000E+00

     negative rho (up, down):  1.694E-02 0.000E+00

     negative rho (up, down):  1.694E-02 0.000E+00

     negative rho (up, down):  1.694E-02 0.000E+00

     negative rho (up, down):  1.694E-02 0.000E+00

     negative rho (up, down):  1.694E-02 0.000E+00

     negative rho (up, down):  1.694E-02 0.000E+00

     negative rho (up, down):  1.694E-02 0.000E+00

     negative rho (up, down):  1.694E-02 0.000E+00

     negative rho (up, down):  1.694E-02 0.000E+00

     negative rho (up, down):  1.694E-02 0.000E+00

     negative rho (up, down):  1.694E-02 0.000E+00

     negative rho (up, down):  1.694E-02 0.000E+00

     negative rho (up, down):  1.694E-02 0.000E+00

     negative rho (up, down):  1.694E-02 0.000E+00

     negative rho (up, down):  1.694E-02 0.000E+00

     negative rho (up, down):  1.694E-02 0.000E+00

     negative rho (up, down):  1.694E-02 0.000E+00

     negative rho (up, down):  1.694E-02 0.000E+00

     negative rho (up, down):  1.694E-02 0.000E+00

     negative rho (up, down):  1.694E-02 0.000E+00

     negative rho (up, down):  1.694E-02 0.000E+00

     negative rho (up, down):  1.694E-02 0.000E+00

     negative rho (up, down):  1.694E-02 0.000E+00

     negative rho (up, down):  1.694E-02 0.000E+00

     negative rho (up, down):  1.694E-02 0.000E+00

     negative rho (up, down):  1.694E-02 0.000E+00

     negative rho (up, down):  1.694E-02 0.000E+00

     negative rho (up, down):  1.694E-02 0.000E+00
 BEEFens 2000 ensemble energies
             -0.132332783021979E+01
             -0.423867923983354E-01
             -0.258446202208715E+00
              0.893477987863480E+00
             -0.422216875102044E+00
             -0.301068947894035E+00
             -0.976432229060240E+00
             -0.198400689783553E+01
             -0.651537210956686E+00
             -0.711040278378794E+00
             -0.734170618136163E+00
              0.130624873545680E+00
              0.772570291668675E-01
             -0.127126177394651E+00
              0.788901089548677E-01
              0.955983800301677E+00
             -0.384609773688806E+00
             -0.157831066628757E+00
              0.513035361163244E+00
             -0.222618036498965E+01
              0.113625561257175E+01
             -0.370362899751134E+00
             -0.129202609862586E+00
             -0.167898894313531E+00
              0.820361678429755E-01
             -0.842589779064897E-01
              0.177455326902128E+01
             -0.502567015781895E+00
             -0.144549973908337E+00
             -0.115225860845689E+01
              0.134269373162055E+01
             -0.401599405943287E-01
             -0.845974772373973E+00
              0.334803423915289E+00
             -0.567034008058496E-01
              0.626475440111714E+00
              0.531442944268594E-01
             -0.352737457574994E-01
              0.816556577235987E+00
             -0.198801937887684E+01
              0.111143295619864E+01
              0.243167095891176E+00
             -0.281428258127071E+00
             -0.577749161173356E+00
              0.251348375893117E+00
             -0.373597382145918E+00
              0.104760367336310E+01
              0.700469112586353E+00
             -0.349569066666003E+00
             -0.655555013029971E+00
             -0.639321464767663E+00
             -0.765547724445252E+00
              0.495785126935875E+00
             -0.105790135363601E+01
              0.336731882303246E+00
              0.123345638527592E+01
              0.155158759383836E+01
              0.633935043997283E+00
              0.321669646151797E+00
              0.676857346379348E+00
              0.184989490351319E+01
              0.304812774132229E+00
             -0.110747120248153E+01
             -0.174284177006305E+00
             -0.612730898504142E+00
              0.125632165818376E+01
             -0.142083925596903E+01
             -0.118962989258406E+01
             -0.716499895556068E+00
             -0.429160807637851E+00
             -0.752785255478505E+00
              0.560787948231431E+00
              0.280033654983461E+00
              0.331270773238205E+00
             -0.782705196490855E+00
             -0.718768044350956E+00
             -0.120425937501293E+01
              0.612338989533328E+00
             -0.707718151199067E+00
              0.671022101515591E+00
             -0.181595878493044E+00
             -0.560004554584596E+00
             -0.977623415091454E+00
             -0.298607769542135E+00
             -0.355066148187756E+00
             -0.279424337740267E+00
              0.780488789720707E+00
              0.161121419252565E+01
             -0.931560935477153E+00
             -0.159436164385343E+01
             -0.363372657379662E+00
              0.218090149567975E+01
             -0.113520525949248E+01
              0.618046113827706E+00
             -0.241745193297803E+00
             -0.117008400442055E+01
              0.552474889087482E+00
              0.577339212619323E+00
             -0.306263321166584E+00
              0.558713008667175E+00
             -0.491446460490902E+00
             -0.127355352928427E+01
              0.207890702510215E+01
              0.914482048904881E+00
              0.387091672188485E+00
              0.251957818015750E+00
              0.488492016436365E+00
              0.163348842861411E+01
             -0.536927095262984E+00
              0.479153007480058E-01
             -0.277720719556309E+01
              0.339206071546649E+00
             -0.132818455085436E+01
              0.247326838642982E+00
              0.436003936524759E+00
             -0.761194725041198E+00
             -0.996153774992458E+00
              0.378945492583647E-01
             -0.634233250812979E+00
              0.924823086856641E+00
             -0.902466312585414E+00
             -0.196321842488674E+00
             -0.779193150171627E+00
             -0.637222038141729E-01
              0.126872504138031E+00
              0.501312305871055E+00
             -0.427393359653827E-02
             -0.114553631471846E+00
              0.137368942014983E+01
              0.185986882571620E+01
              0.101281736077739E+01
              0.125813739578248E+01
             -0.262085305062319E+00
              0.152888296207982E+00
              0.102042204270602E+01
              0.155422769179305E+00
             -0.153625611570094E+01
             -0.919617575163036E+00
             -0.986239748612620E+00
             -0.592416998831209E+00
              0.514231912234948E+00
             -0.246811056613460E+01
             -0.238374415760198E+00
              0.952574634932119E+00
             -0.819882319552690E+00
             -0.570265103381928E+00
              0.120149538908832E+01
              0.994882934750311E+00
             -0.559382332823663E+00
              0.724194412480303E+00
             -0.512755219271932E+00
              0.765842775779854E+00
              0.132069031501735E+00
              0.184102881744365E+00
             -0.163542785281508E+01
             -0.952430639846645E+00
             -0.174125696014752E+00
             -0.857727431424497E-01
             -0.868316009700019E+00
              0.226674843140890E+01
             -0.195801317230774E+00
             -0.525550533732038E+00
              0.777255744055193E+00
             -0.883200899502566E+00
             -0.786765330927631E+00
              0.669233915924350E+00
              0.259470953791478E+00
              0.212470162621219E+00
              0.354586542164725E+00
             -0.215304190139157E+00
              0.166576118136895E+00
              0.116453630569970E+01
             -0.521684736888228E+00
              0.457093196517110E+00
              0.178497679433863E+01
              0.639856638723923E+00
             -0.645700829326419E-01
             -0.434316291726405E+00
              0.313981556433235E+01
             -0.536101017059048E+00
              0.809559932475635E+00
              0.653319056236198E+00
              0.522585691033181E+00
              0.187352378550180E+01
              0.920367810747695E+00
             -0.104266643724364E+00
              0.524568956963854E+00
              0.107480013509431E+01
              0.769386836336646E+00
             -0.124779142022984E+01
              0.191061069208020E+01
             -0.173384338462030E+01
             -0.186963938922980E+00
              0.112012321770464E+01
              0.392054596015960E+00
              0.119407899629406E+00
              0.523796310654949E+00
              0.297802476075203E+00
              0.642687820906714E+00
             -0.125708203194708E+01
              0.640015904403661E-01
             -0.463281473132330E+00
             -0.976346950581153E-01
             -0.719929693696795E-01
             -0.287198971805478E+00
             -0.133468898769182E+00
              0.167326472336138E+01
             -0.880635293340570E-01
             -0.573982790463630E+00
             -0.183191124985589E-01
              0.298834271588291E+00
             -0.131212725744380E+01
             -0.117141722762628E+01
             -0.673365463025331E+00
             -0.127825956982802E+01
             -0.394104770518747E+00
             -0.811012760039600E+00
              0.353023053524661E+00
              0.570779337074643E-01
             -0.266570160546582E+00
             -0.158531136314532E+00
              0.933470569686534E-01
             -0.231499652312470E+00
              0.131686330047355E+01
             -0.179550060897303E+01
             -0.264007131554094E+00
             -0.257875483289355E+00
              0.298695244103352E+00
              0.473489218415657E+00
             -0.104975037748103E+01
             -0.228500092630281E+00
              0.907040885605199E+00
             -0.378851309929423E+00
              0.275544302323890E+00
              0.657971596981177E+00
             -0.139107686556263E-01
              0.232316957227692E+01
             -0.179538735895376E+00
             -0.695088762573464E+00
             -0.209864176621659E-01
             -0.588634163561144E+00
              0.110323979368555E+01
             -0.102194197760023E+01
              0.304738889359248E+00
              0.953877612580341E+00
             -0.248411182682585E+00
              0.237802963150995E+01
              0.257007323515124E+01
             -0.143950604927770E+01
              0.116663338985150E+01
              0.509316640609406E+00
             -0.114710562216693E+01
              0.341782584645617E+00
              0.905224017265021E+00
              0.974787116018029E+00
              0.912192994476340E-01
              0.400907151706267E+00
              0.153047275895342E+01
             -0.470586968593053E+00
              0.173608675719676E+00
              0.132095209319609E+01
             -0.716962168512147E+00
             -0.526996331029041E+00
              0.123065359297599E+01
              0.633421673412085E+00
              0.154693663687250E+01
              0.720354372929213E+00
              0.301702193323150E+00
              0.493998900465674E+00
              0.874271945922847E+00
             -0.110142539596736E+01
              0.175672291739208E+00
              0.609017784269883E+00
              0.227418980736699E+00
              0.503827004600196E+00
             -0.127281793544259E+01
              0.639947245780391E+00
             -0.868471004469050E+00
             -0.634982729353059E+00
              0.418646956127710E+00
             -0.150751261703563E+00
              0.124610560314495E+01
             -0.236109861534171E+00
              0.598719631492342E+00
              0.603928537291834E+00
              0.155030508930860E+01
              0.104539884746231E+01
              0.104322213193410E+01
             -0.482387156521114E-02
             -0.255439374945055E+00
             -0.591159054721194E+00
              0.168572729577907E+01
              0.167752533882001E+01
              0.806761209299906E+00
             -0.594676415844055E+00
              0.995861239673515E+00
              0.400224255550068E-01
              0.312150912271963E+00
              0.142859172699920E+01
             -0.559824363334163E-01
             -0.205406817561408E+00
             -0.399084643293042E+00
             -0.128415726591432E+01
              0.195552850634082E+01
              0.107095365742289E+01
             -0.134228301704102E+01
             -0.460227818253274E+00
              0.488584820768426E+00
             -0.201491108288315E+00
              0.134135582378684E+01
              0.312836023442465E+00
              0.165328381972394E+01
              0.641530475305666E+00
             -0.442141360222823E+00
              0.341152497131443E+00
             -0.148122134940230E+00
             -0.481432647068187E+00
              0.340465446002440E+00
              0.305763250727923E+00
              0.184848957766991E+01
              0.153522048510001E+01
              0.117388323993653E+01
              0.134136900251703E+01
              0.142704320794276E+00
             -0.514964268825318E+00
              0.269946832052953E+00
             -0.662734955205180E+00
             -0.117086306315607E+01
             -0.112802324841432E+01
             -0.662237808127109E+00
             -0.218595305993627E+01
             -0.780798720540605E+00
             -0.176097315622307E+01
              0.431012383333931E+00
             -0.904694440074013E+00
              0.106598273028339E+01
             -0.202112042259765E+01
             -0.602890957143486E+00
              0.737201505559597E+00
              0.440386579850501E+00
             -0.186099292895958E+01
              0.104700288409183E+01
             -0.587157235829407E+00
              0.112371127711396E+01
             -0.532219937281269E+00
             -0.158608722348903E+01
              0.360388902159142E+00
             -0.133699625789284E+01
             -0.240767497883141E-01
             -0.440260016221470E-01
              0.823083617267764E+00
              0.255407422988774E+01
             -0.857737078036227E+00
             -0.764474399198476E+00
             -0.151846720665606E+00
             -0.134550053258727E+00
             -0.162276560574047E+01
             -0.113882849947760E+01
              0.100115254419819E+01
             -0.336530912553605E+00
              0.485293555375665E+00
             -0.993546655507883E+00
             -0.333392304166534E+00
             -0.842990039218519E+00
              0.971258563770915E+00
              0.230343492231510E+00
             -0.504000759641489E+00
             -0.385220580236778E+00
              0.283146078092117E+00
             -0.143338840937910E+00
              0.798430459305622E+00
             -0.536042593199557E+00
              0.257750076767447E+00
              0.693432572693066E+00
              0.233543998231683E+00
             -0.506465459764986E+00
              0.313517093403607E+01
              0.123187328209102E+01
              0.219108950079925E+00
              0.121838759911437E+00
             -0.122597564689070E+01
              0.685449842737238E+00
             -0.159977106155564E+01
             -0.717229198212499E+00
             -0.122558667027687E+01
             -0.372763237587070E+00
              0.121804451887468E+01
             -0.117826173250841E+01
              0.567288186255919E+00
             -0.984445190703909E-01
              0.193817446268354E-01
             -0.618085949722187E+00
             -0.835628605120017E+00
             -0.161656746416574E+00
             -0.626054561566356E+00
             -0.441957457679003E+00
             -0.809226425463076E+00
             -0.949356514311045E-01
             -0.637302635143217E+00
             -0.974540857880012E+00
              0.412485836772049E+00
             -0.220083501763312E+00
              0.500686799777935E+00
              0.160499118861219E+00
             -0.154188112287545E+01
             -0.101420867182794E+01
             -0.105415093224799E+01
              0.621086287591094E+00
             -0.154194104910346E+00
             -0.123113166816738E+01
              0.115693890892021E+01
             -0.865345835021841E+00
              0.121820130441141E+01
             -0.638119980506388E+00
             -0.987076741784805E+00
              0.486046785952551E+00
             -0.148166371229391E+01
             -0.618518084275965E+00
              0.116704162737516E+01
              0.420555688334263E+00
             -0.906073983170817E+00
              0.113900685929266E+01
             -0.326627294706949E+00
             -0.754156615262442E+00
             -0.598475570621531E+00
             -0.106850058636582E+01
              0.538716629860919E+00
             -0.176298821673790E+01
             -0.152571360823732E+01
             -0.158125292074988E+00
             -0.590991622236385E+00
             -0.124381768931255E+01
              0.156233207367315E+01
              0.281479910025332E+01
             -0.401140535676885E+00
             -0.869748045154637E-01
             -0.120690352044568E+01
              0.135258234247961E+01
              0.448308019165067E+00
             -0.432259170305711E+00
             -0.728066494111178E+00
              0.286005095519150E+00
             -0.120062428934383E+01
             -0.213048835111578E+00
             -0.172967212483434E+01
              0.687640119299443E+00
              0.214935317673363E+00
             -0.124647539119479E+00
             -0.263077680461262E+00
             -0.875807027710270E+00
             -0.285665156588081E+00
              0.279692499924985E+01
             -0.314477247027913E+00
             -0.999025166850652E+00
             -0.141751289985063E+01
              0.291132995084034E+00
             -0.790924002653859E+00
              0.213322925198064E+00
              0.684773076432393E+00
              0.101749753825432E+00
              0.746195638835920E+00
              0.386163366422132E+00
              0.119525601141210E+01
              0.483042467949785E+00
             -0.753745607090472E+00
              0.114488907143434E+01
              0.694479123284361E+00
              0.257590643815042E+00
              0.733734052501602E+00
             -0.667349423499979E+00
              0.144790190920473E+01
              0.554565251837389E+00
             -0.715473991201764E+00
             -0.109222778219713E+00
             -0.333816082032904E+00
              0.296645774363733E+00
             -0.504303012170612E+00
             -0.269476414047495E+00
             -0.261146791190411E+00
              0.164941935270322E+01
              0.119083108722434E+01
             -0.128183355469070E+01
             -0.177820547006540E+00
             -0.100054265877959E+01
             -0.255476757301734E+00
             -0.426297129679031E+00
              0.234317714818467E+00
             -0.622582767154239E-01
             -0.588313870808908E+00
              0.365724321181574E+00
             -0.194591922131319E+00
             -0.129412035024508E+00
              0.177753501177965E+01
              0.290804374519639E+00
             -0.171459792850525E+01
             -0.763660594889569E+00
              0.196929795265366E+01
              0.474313355004480E+00
             -0.172531036959896E+00
              0.223754588897194E+01
             -0.323906611652278E+00
             -0.149858497385780E+00
             -0.259202096750375E+00
              0.324749824536809E+00
              0.697835339624985E+00
              0.506256675816534E-01
              0.581850596737293E+00
             -0.216113404537935E+00
             -0.839787753199887E+00
             -0.798863823434377E+00
             -0.975823484179886E+00
              0.815734744976571E+00
              0.299210062217399E+00
              0.768983733007813E+00
              0.327940150009306E+00
              0.184343085170039E+01
              0.421619098031725E+00
             -0.156639886619666E+01
             -0.668261509085104E+00
              0.372064817225932E-01
             -0.569112229133853E+00
              0.130420588940688E+01
             -0.322256052511324E+00
              0.341917460114654E+00
              0.113828511232904E+01
             -0.166202834725242E+01
              0.299915101491965E+01
              0.399336820413605E+00
              0.495559629204738E+00
              0.780916911725306E+00
              0.540555056054277E-01
             -0.413847707470021E-01
              0.646377506295990E+00
             -0.713997600000632E+00
              0.178117732314919E+01
              0.155485428237159E+01
             -0.789120957826864E+00
              0.342860730410065E+00
              0.147479550902003E+01
             -0.434509250652885E+00
              0.436425742250965E+00
              0.644462529204037E+00
              0.835921772846544E+00
             -0.150157337862133E+01
             -0.100538286183779E+00
             -0.517045735381737E+00
             -0.123171614892470E+00
             -0.150874105900890E+00
              0.165936937365377E+00
             -0.246011453368671E+00
             -0.622322081327912E+00
              0.357334825446274E+00
              0.113998831322874E+00
              0.108189177559414E+01
             -0.955863723761317E+00
              0.954891864019435E+00
              0.103915897512088E+01
             -0.157738031720402E+00
              0.149437100973646E+01
             -0.137274564562693E+01
             -0.210284702095129E+01
             -0.176838864216691E+00
             -0.131776385493003E+00
             -0.686555533881616E-02
              0.159346062990714E+01
             -0.123234983277116E-01
              0.875176322098580E+00
              0.123528155905207E+01
              0.797723387920987E+00
             -0.129532925694891E+00
              0.119468070104768E+01
             -0.343371912499379E+00
             -0.806186468171544E+00
             -0.700665262659904E+00
              0.224425239109793E+00
              0.695506339774283E+00
             -0.482338430282891E-01
              0.673066659637552E+00
              0.107417285218725E-01
              0.111740429443477E+01
              0.319230074993929E+00
              0.164061290712439E+00
              0.311361561120904E-01
              0.588922554086320E+00
              0.838967430068269E+00
              0.292753753877689E+00
             -0.735236714649048E-01
             -0.111077398867791E+01
              0.615544477648152E+00
              0.426656552336643E+00
              0.661334540910528E+00
              0.607062192172119E+00
              0.748029939414102E+00
             -0.194753314447961E+00
              0.711734755522247E+00
             -0.615205016061783E+00
             -0.349970703649660E-01
             -0.106783526398646E+01
             -0.713917944841168E+00
              0.883914263547952E+00
             -0.179189428463667E+01
              0.478806882642908E+00
              0.280432413214323E+00
              0.177091701025281E+01
             -0.234310045630493E+00
              0.680736768769817E+00
             -0.235753845708334E+00
             -0.101295058126668E+01
             -0.132786310507358E+01
             -0.326923286025093E+00
             -0.185935091384816E+01
              0.154341581442857E+00
             -0.425217376392049E+00
              0.675456298371989E+00
              0.513624808159447E+00
             -0.594628420342683E+00
             -0.625236641586705E+00
              0.878370583099823E+00
             -0.116961085389931E+01
             -0.283632625043558E+00
             -0.326509075508286E+00
              0.557552244585406E+00
              0.124285813272364E+00
              0.758202101722225E-01
             -0.293640959146927E+00
              0.109155620504402E+01
             -0.124902680206041E+01
              0.129347388660353E+00
              0.122804920316848E+01
             -0.752147756749042E+00
              0.820699900205772E-01
              0.453393735341425E-01
             -0.131299423049551E+01
             -0.755977449102873E+00
             -0.226834070396613E-01
              0.644927313278471E+00
              0.716768097294854E+00
              0.947078388662534E-01
             -0.254308327854387E+00
              0.333738586294208E+00
             -0.809808399764061E+00
             -0.107349775122281E+00
             -0.107832924094043E+01
             -0.543932470180928E+00
              0.103139964129186E+01
             -0.624737940163411E+00
              0.144154613408200E+01
             -0.484467264660476E+00
              0.669036249894770E+00
              0.518860928983649E+00
             -0.121814240900448E+01
             -0.506743045955944E+00
              0.207676983645433E+00
             -0.866467014967101E+00
             -0.847349679343505E+00
             -0.183068072329869E+01
             -0.112477480431726E+01
             -0.100284832953609E+01
             -0.926328865810628E+00
             -0.716651188800377E-03
              0.519610510072033E+00
              0.255128969192759E+00
              0.578989431813938E+00
             -0.119832372590984E+01
              0.268399703585111E+00
              0.603275182995611E+00
             -0.140338913124687E+01
             -0.115416902529356E+01
             -0.801438554711501E+00
             -0.690217185233338E+00
              0.280387298454928E+00
             -0.684070687519149E-01
             -0.845820917375165E+00
              0.556113186787856E+00
             -0.481222421098440E+00
              0.106971537059698E+01
             -0.179922099480210E+01
              0.131964450660959E+01
             -0.255693416641878E+00
             -0.905324528708212E+00
             -0.561664849671334E+00
             -0.255516477950479E-01
              0.100978129040325E+01
             -0.141303733314921E+01
             -0.257189970379191E+00
             -0.334762811944842E+00
              0.824013306106942E+00
              0.163412487218120E+01
             -0.205756554628225E+01
              0.186812304118156E+01
              0.771763749896028E+00
             -0.155688418979449E+01
             -0.629861196520845E+00
              0.161747883757856E+01
              0.115670230553203E+01
             -0.431186676549601E+00
             -0.151019137681946E+00
              0.384866280705119E+00
              0.160035178200828E+01
             -0.122555654800486E+01
              0.252185540612474E+00
             -0.158887451710488E+00
              0.528459775603203E+00
             -0.143036658835928E+01
             -0.413493168924368E-01
             -0.531488728229692E+00
              0.990901338483853E+00
              0.777385039092394E+00
             -0.183052291814835E+01
             -0.960453199023825E+00
             -0.418241529073226E+00
             -0.908312475467683E+00
             -0.249604282839677E+00
             -0.349317627480848E+00
              0.935405669771977E+00
              0.882098488434996E+00
             -0.184348114371398E-01
             -0.900877923712450E+00
             -0.176906421837281E+01
              0.105272601914955E+01
             -0.930174246914381E+00
             -0.778642503463421E+00
              0.155792863277653E+00
             -0.768314830776216E+00
             -0.824092265229922E+00
             -0.644407241553491E+00
             -0.106177133092529E+01
             -0.481491038576117E+00
             -0.100896919123061E+01
              0.111286402428629E+01
              0.118515581144240E+01
             -0.237680092874783E+00
             -0.417663062666248E+00
              0.731380599822806E-01
              0.861518789014482E+00
             -0.171997355221193E+01
             -0.479297420715761E+00
              0.101132967967141E+01
              0.147911025829980E+01
             -0.192657600657327E+00
              0.204049316620571E+00
              0.107250595326935E+01
              0.309894689863482E+00
              0.509015108788304E-01
             -0.791245077396713E+00
              0.284128873416865E+00
             -0.655338491889638E+00
             -0.133216252431858E+00
             -0.438674821347266E+00
             -0.282464474270943E+00
              0.506105600746906E+00
              0.161632499261265E+01
             -0.157854759661820E+00
              0.339103222390964E-01
             -0.186684803678760E+01
             -0.364499093940500E+00
             -0.721170619072109E+00
             -0.340660151396044E-01
             -0.983242058234087E+00
              0.186194703481519E+01
              0.177855203135671E+01
              0.381664640471694E+00
             -0.490427574977805E+00
              0.384429444137277E+00
              0.401709802726383E+00
             -0.944483403687066E+00
             -0.197290391296795E+00
              0.415765558224773E+00
              0.246703106071901E+00
              0.103181719791637E+01
              0.786916680957693E+00
             -0.423702818911361E+00
              0.423506799177223E+00
             -0.198728064778335E+01
             -0.264146763636077E-01
              0.184230140560919E+01
              0.390092558801141E+00
             -0.608882264827972E-01
              0.538580464881291E+00
             -0.483222598598655E+00
              0.176917072798119E+01
             -0.426947045963635E+00
              0.156824624630023E+01
              0.784653774762422E+00
             -0.919069836858561E+00
              0.683581204306428E+00
             -0.570873692803608E+00
             -0.138953396964073E+01
             -0.167960453624232E+00
             -0.109802427932705E+01
             -0.106303620725636E+01
             -0.269378846568440E-01
              0.777020341193559E+00
             -0.300270987373327E+00
             -0.616908064804308E+00
              0.152520616816123E+00
             -0.132933739470023E+01
             -0.603008267112364E-01
             -0.178798680158448E+01
              0.106160162850931E+01
             -0.815105231529376E-01
             -0.995049582044988E+00
             -0.312309350397004E+00
              0.360791522297676E+00
             -0.787164426329901E+00
             -0.897089381575330E+00
              0.186775304319366E+01
             -0.576275988994253E+00
             -0.752074528889583E+00
              0.663257028685786E+00
             -0.461655529962144E+00
              0.118124586148218E+01
             -0.507449206100308E-01
              0.501392201585853E-01
              0.225420798681986E+01
             -0.161786341444132E+00
             -0.790960160263966E+00
             -0.981812196811983E+00
             -0.104227460257850E+01
             -0.771444217196297E+00
              0.595052518140408E+00
              0.647802878269502E+00
              0.578861543137623E+00
              0.152089099456954E+01
              0.118735490437018E+00
              0.478667356125893E+00
             -0.116903397246588E+01
              0.413953697665637E-01
             -0.308337525234673E+00
             -0.566614104190975E+00
             -0.153375599077702E+00
              0.667698619679786E+00
              0.777642507414136E+00
             -0.526628798539052E-01
              0.277760018368426E+00
              0.554655427712047E+00
              0.694852967928294E+00
             -0.485757817265399E+00
             -0.195006224067118E+00
              0.673206446347585E-02
             -0.535198978921239E+00
             -0.540004778447924E-01
             -0.831006495582018E+00
              0.162123645963087E+01
              0.125838148100640E+01
             -0.384547047789958E+00
              0.347342901307103E+00
             -0.123094467272346E+00
             -0.656720315453892E+00
              0.766103836481358E+00
             -0.192627103899422E+00
              0.753251128910932E+00
             -0.970438877755919E+00
              0.367739444510940E+00
             -0.160581167305962E+00
             -0.109935122359949E+01
             -0.497729183077567E+00
              0.493741285686081E+00
             -0.201087453888170E+01
              0.784664807635298E+00
              0.950337720526927E+00
             -0.209364018256125E+00
             -0.158678449336001E+00
             -0.843783117159713E-01
              0.547891120182463E+00
             -0.698663984649129E+00
              0.628550021660796E+00
              0.659880055686311E+00
             -0.183336741945122E+01
             -0.755394513027174E+00
              0.495568603311598E+00
             -0.254103697688811E+00
              0.101491055043048E+01
             -0.126484497873418E+01
             -0.224080961068401E+00
             -0.811896346067827E+00
             -0.267090667268360E+01
              0.161859259763698E+01
             -0.121799502321258E+01
             -0.138267218723414E+01
              0.127742576428340E+00
              0.263500354777687E+01
              0.150802528549793E+00
             -0.677860764000982E+00
             -0.274574418087052E-01
             -0.733324355363436E-01
             -0.174409229580521E+01
             -0.111657935900616E+01
              0.175971258419658E+01
             -0.254924329436126E+00
             -0.734031348547493E+00
              0.992363875974156E+00
             -0.665784436873438E+00
              0.672719160784865E+00
              0.985370566956028E+00
             -0.107238623763453E+01
             -0.572429245800902E+00
             -0.653496601741955E+00
             -0.360243289887083E+00
             -0.394133763443430E+00
             -0.390460109330004E+00
              0.414261013923603E+00
             -0.727614702918626E+00
              0.563793690001072E+00
              0.111825545382515E+01
             -0.123789809270768E+00
             -0.431045653731401E+00
              0.312629797034615E+00
              0.111320446341779E+01
              0.113214294563035E+01
              0.225525811640539E+00
             -0.225045208627228E+00
             -0.232759322062758E+00
             -0.108911860303456E+01
              0.830931396276107E+00
             -0.502056821983795E+00
              0.467766485098382E+00
             -0.268904085520690E+00
              0.528727657970805E+00
              0.350878645148888E+00
             -0.166807905379449E+01
             -0.515645853358722E+00
             -0.160532811931454E+01
             -0.824019308679482E+00
              0.807030549323455E-01
             -0.406459211458260E+00
              0.727081727870671E+00
             -0.585080550065156E+00
              0.771688297744932E-01
              0.144512926048545E+00
              0.142715169575964E+01
              0.739715387524480E+00
             -0.669454426836565E+00
             -0.501063502702870E-01
              0.311979955387959E+00
              0.756590790313156E+00
             -0.148255076511115E-01
              0.116139712227386E+01
              0.558720255013292E+00
              0.183903344825897E+01
              0.708858941897452E-01
              0.126201084372546E+01
             -0.568575204625692E+00
             -0.800566847173954E+00
              0.378727203263161E-01
              0.222987122865051E+00
              0.453632630747017E+00
             -0.434584049014489E+00
             -0.218725109173038E+00
              0.474772310263957E+00
             -0.968510229878714E+00
             -0.123395263334396E+01
              0.162975624517783E+01
             -0.131283641410592E+00
             -0.741005291115347E+00
             -0.109350203956511E+00
             -0.284370465839419E+00
              0.910772718691823E+00
              0.739106570040179E+00
             -0.421524275809929E+00
              0.272535841168819E-02
             -0.524350575508511E+00
             -0.729987486025932E+00
             -0.482802138963940E+00
             -0.199941082787542E+01
              0.338735115487401E-01
             -0.131545520791554E+01
             -0.121014216179375E+01
             -0.761924626841404E+00
              0.459507549043749E+00
             -0.787653917882966E+00
              0.493045513194650E+00
             -0.133454275468691E+01
             -0.167718967639541E-02
             -0.865199539816022E+00
              0.168615218186471E+00
              0.155563908896242E+00
              0.729917068477155E+00
             -0.425251788560085E+00
             -0.380908798918387E+00
              0.661077789714555E+00
              0.121400085240837E+01
              0.661246393814585E+00
              0.225963003469332E+00
             -0.153057190545883E+01
             -0.326920243196418E+00
             -0.569797018608584E+00
             -0.125598706395655E+01
              0.883231432230007E+00
             -0.705951212744086E+00
             -0.156318139932896E+00
             -0.569986162341973E+00
             -0.202016327420928E+01
              0.114791250972009E+01
             -0.374767792600240E+00
              0.789884900173865E+00
             -0.152108516158496E+01
              0.134003119477281E+01
              0.129008031135743E+00
             -0.520333382046124E+00
              0.220581367904972E+00
             -0.404652216519693E+00
             -0.127343109024566E+01
              0.354491033829417E+00
              0.815856637018992E+00
             -0.333085609354331E-01
             -0.702227110299221E+00
             -0.329704257890731E+00
              0.425951944311003E+00
              0.761308073566417E+00
              0.125771144203014E+01
              0.458913348023154E+00
             -0.468722236666205E+00
              0.206141727709418E+01
              0.427402110081202E+00
              0.975958920553950E+00
             -0.345475450124379E+00
              0.603846264337254E+00
              0.493997820173790E+00
             -0.126030905026854E+01
             -0.460310401417592E+00
             -0.827596751492484E+00
             -0.860678146742544E+00
             -0.250935676177580E+00
             -0.164759589839408E+00
             -0.956148275712851E+00
             -0.225889163842321E+01
             -0.548073678267009E+00
              0.274034878494962E+00
              0.117511780348913E+00
              0.329874088250619E+00
              0.817290531141586E+00
              0.204281603954830E+00
              0.644066242310255E+00
             -0.881507601894907E+00
              0.878471447172279E+00
             -0.795122053231464E+00
             -0.136301708298954E+01
              0.415273620675194E+00
             -0.864724509640181E+00
             -0.808098624933275E+00
             -0.325553891736974E+01
             -0.145510067466653E+00
              0.172830069577896E+01
              0.826378696712889E+00
             -0.210183552212699E+00
             -0.213925702880381E+00
              0.921377663894321E+00
              0.129943154892392E+01
             -0.800058604474374E+00
             -0.263271452112265E+00
             -0.747595950214085E+00
             -0.679996627478411E+00
             -0.594236677856889E+00
              0.210402458610669E+00
              0.141733866640687E+01
             -0.132482392209865E+01
             -0.111252175510741E+01
              0.770659537380940E-01
             -0.306085646501995E+00
             -0.351016242359109E+00
             -0.182019389548639E+01
              0.129086703153076E+01
              0.400465337254463E+00
              0.193925412182029E+00
              0.106643791129707E+01
             -0.676394381143325E+00
              0.687220413425328E+00
              0.589439095933616E+00
              0.219229648286419E-01
             -0.168465681846664E+00
              0.166080322777452E+00
             -0.317359279595856E+00
              0.108516570426288E+01
             -0.803523914505033E+00
              0.954562446639442E+00
              0.184269542582761E+00
              0.353668688596135E+00
              0.404874406998838E+00
             -0.165908645949892E+01
              0.215901243103980E+00
             -0.136304920671343E+01
             -0.978150742076740E+00
             -0.968372357590945E+00
             -0.108386236114105E+01
             -0.959706914411385E-03
              0.393746117204916E+00
              0.102109649625469E+01
              0.145614737575521E+00
              0.305989645815113E+00
             -0.141523832715760E+01
             -0.569034453769108E+00
              0.659298338074541E+00
             -0.821476180766094E-01
             -0.752139400929002E-01
             -0.197174587591896E+00
              0.727091599252768E+00
             -0.185089655568529E+01
              0.271822934930015E+00
              0.417070737176232E+00
              0.791370066117913E+00
              0.749184065143808E+00
             -0.115522749907915E+01
              0.333532472502275E+00
              0.135671446638581E+00
              0.141256580068919E+00
              0.127708029002696E+00
             -0.398954844327958E+00
             -0.893789665285515E+00
              0.366978214750299E+00
              0.118442882262693E+01
             -0.135619473032733E-01
              0.282650934019959E+00
              0.253010695978204E+00
             -0.636174778341500E+00
             -0.680210008660243E+00
             -0.251279579206018E+01
             -0.768439337978975E+00
             -0.120595998471358E+01
             -0.124693742700881E+00
             -0.139733762373110E+01
              0.154136327743831E+01
             -0.693606729381527E+00
             -0.112983026512648E+01
             -0.320154131926126E+01
              0.136999024433910E+01
              0.304939540740129E+00
              0.226109973734030E+00
             -0.124773007530111E+01
              0.788588609244893E-01
             -0.343917076953387E+00
             -0.637595672171353E+00
              0.171361649602058E+00
              0.664562990878748E+00
              0.959625754772269E-01
             -0.426777913360601E+00
              0.859855073910385E-01
              0.285869132429166E-01
              0.212803999891733E+00
             -0.136755782180887E+01
              0.150811050481030E+01
             -0.848787138749632E+00
             -0.541340251671718E+00
             -0.106505824663821E+01
             -0.225173801420414E+01
              0.905388990437666E-01
             -0.118821598010597E+01
             -0.366299334521005E+00
              0.625988956462805E+00
             -0.553942760331211E+00
             -0.244734435349782E+00
             -0.269578367678602E+00
             -0.394656319351574E+00
              0.727231917140869E-01
              0.105249389255913E+01
             -0.102071337595328E+01
              0.213281431659788E+01
             -0.523483580973608E+00
              0.658837373982751E+00
             -0.380416118978032E+00
              0.236931455666028E+00
             -0.247356108691085E+00
              0.905201363596548E+00
              0.127478613008826E+01
              0.367726046995019E+00
              0.878518433402685E+00
             -0.591116991442440E+00
             -0.161125681479634E+00
             -0.479142456807280E+00
              0.129883581058617E+01
              0.111832371262663E+01
              0.813849333558156E+00
             -0.253607710643827E+00
             -0.516947964691242E+00
              0.491095531234305E+00
             -0.604653347986006E+00
             -0.301284330142696E+00
             -0.116193392720350E+00
             -0.732437466573366E+00
              0.995040938500702E+00
             -0.229996130002377E+00
              0.731226366914197E+00
              0.466428916990066E+00
              0.305819723816283E+00
             -0.689533916074658E+00
              0.497785659288297E+00
             -0.280231063493192E+00
             -0.140014030214427E+00
             -0.171905589648489E-01
             -0.975856167393534E+00
              0.158270345885797E+01
             -0.540069579716572E+00
              0.106728295634984E-02
              0.507682303894349E+00
              0.435518716551456E+00
              0.158860138486235E+01
             -0.441725133879421E+00
              0.152698125543401E+01
              0.135290646416517E+01
             -0.188962296362216E+01
              0.141147963459228E+00
             -0.374733286428171E+00
              0.248607823408888E+00
              0.918285161484689E-01
              0.441839460149236E+00
              0.131148078338719E+01
              0.204757769999982E+01
             -0.148531147152742E+01
              0.155127056080333E+01
             -0.206353936360607E+01
             -0.177520682902685E+01
             -0.304375301761439E+00
              0.191845235810328E-01
              0.161229483301936E+01
              0.655839476033245E+00
             -0.266256337685009E+00
             -0.168492569660926E+01
              0.136380160285821E+01
             -0.830897022898249E+00
              0.344898972406416E-01
             -0.111266797277253E+00
              0.265189067002379E+01
             -0.448108329308349E+00
             -0.214815469059355E+01
              0.614623179840398E+00
             -0.331041269053281E+01
              0.263788205571754E+00
             -0.787273413331394E+00
             -0.361250863471839E+00
             -0.528018143593728E+00
             -0.121714375264724E+01
              0.741867406431994E+00
             -0.748556801540963E+00
             -0.288175741055392E+00
             -0.153827543674300E+01
             -0.802620945771535E-01
             -0.111228064449193E+01
             -0.158438273108164E+01
             -0.214287844518295E+01
              0.163738515522718E+00
             -0.767293320755990E+00
              0.224844019810066E+00
             -0.285823331792599E+00
             -0.170371074074574E+01
             -0.131600766092972E+01
             -0.116588582125318E+01
             -0.120717814174328E+01
              0.106335762184279E+01
              0.108509474067717E+00
             -0.101691052400877E+01
             -0.518458227615668E+00
             -0.572138661267015E+00
              0.859760050859285E+00
             -0.615406801483074E+00
             -0.823265941884015E-01
             -0.660620192399210E+00
             -0.806353461606722E+00
             -0.857871955446446E+00
              0.827515581661822E+00
             -0.257964226501673E+00
             -0.188746650963304E+01
              0.158027295346274E+01
              0.921933702430819E+00
              0.569659869659773E-01
             -0.167588169578616E+01
             -0.151462532177882E+01
              0.940923395499489E-01
              0.108953135373628E-01
             -0.690887079708705E+00
             -0.881605711801946E+00
              0.605643302260980E+00
             -0.963342255075617E-01
              0.553931296421325E+00
              0.977748865836096E+00
              0.712760696015098E+00
              0.495240778045679E+00
              0.439920676544812E+00
             -0.456819079955295E+00
             -0.317161906676533E+00
             -0.382218726014085E+00
             -0.786722338019771E+00
             -0.954466586105273E+00
             -0.122710024175964E+01
             -0.728609707468361E+00
             -0.264310341166078E+00
             -0.151019338029413E+01
             -0.361325663188490E+00
              0.742622913580229E+00
             -0.174254171504730E+01
              0.765795732094065E+00
              0.613770093427298E+00
             -0.148515852784299E+01
             -0.113530330935687E+01
             -0.478040319771683E+00
              0.242813454551784E+00
             -0.850317554509290E+00
              0.154796156050315E+01
              0.136385735192307E+01
             -0.158216753794123E+01
              0.834610088094591E+00
              0.740915010747405E+00
              0.209707036991613E+00
              0.379555958206257E+00
             -0.872417254259851E+00
             -0.318407083515156E+00
              0.137240469255682E+00
              0.424255224839041E+00
              0.836969840574598E+00
             -0.110162465914172E+01
             -0.236153320208105E+00
              0.327538393318549E+00
              0.227229808274276E+00
             -0.704849001694548E+00
              0.378379516740520E+00
             -0.505658573962139E+00
             -0.363839216503117E+00
             -0.233479396388141E-01
             -0.126467646449473E+01
             -0.123335252771259E-01
             -0.164371646812683E+00
             -0.315974837071373E+00
              0.338691212519342E+00
             -0.107225994299079E+01
              0.120329241720297E+01
             -0.434684523791676E+00
             -0.274994821743649E+01
             -0.175784752271482E+01
              0.705085707397738E+00
             -0.867230429801645E+00
             -0.442005781968620E+00
             -0.466310973283278E+00
             -0.401520619529724E+00
             -0.212035746598677E+01
             -0.921183971526318E-02
             -0.126553546100222E+01
             -0.699992067243681E+00
              0.392681530387334E+00
              0.163315369407238E+01
              0.104908981291485E+00
              0.604382506012549E-01
              0.123055266476003E+01
             -0.120342471674782E+01
              0.566064211780125E+00
              0.117054726393263E+00
             -0.109724152764457E+01
             -0.642863522478988E+00
              0.389463403027515E+00
              0.666221442165926E-01
              0.355913010431026E+00
              0.280676204214214E+00
             -0.476868712421414E+00
             -0.694775615022206E+00
             -0.102748901270440E+01
              0.101931935181747E+01
             -0.139577962020912E+01
             -0.103583477305113E+01
              0.299240636447248E+00
             -0.171018151004855E+01
              0.488996992613837E+00
              0.122649219828941E+01
             -0.244856177233665E+00
              0.423853860697379E+00
             -0.704475208935957E+00
             -0.459687833658865E+00
              0.216472671032585E+00
              0.737511026764260E+00
             -0.744417019136058E+00
              0.453859342709320E+00
             -0.296902416343890E+00
              0.166055626710721E+00
              0.370071174203143E+00
              0.178019209709509E+00
             -0.263594016175186E+00
             -0.216382255842014E-01
              0.223544455787341E+00
              0.577047435038776E+00
             -0.145004002925487E+01
             -0.396835386793200E-01
              0.107626704898620E+01
             -0.179149761346611E+01
              0.673581648328806E+00
             -0.231850424556525E+01
             -0.238094286522602E+00
             -0.289871377984311E+00
             -0.543807744820803E-01
             -0.269334908080021E+00
             -0.563448360964768E+00
             -0.228559508265942E+00
              0.241793099272783E+00
             -0.530919258329166E+00
              0.216741143148498E+00
              0.186145743462085E+01
             -0.115708695928903E+01
             -0.511563477913374E+00
              0.868178098724480E+00
              0.425179683232094E+00
              0.873950645946268E+00
              0.421879677372016E+00
              0.321567109864633E+00
             -0.290318680597492E+00
             -0.100528717734328E+01
             -0.919876866704911E+00
             -0.729300186825471E+00
              0.122789607742924E+00
             -0.870780100982946E+00
             -0.238332067306355E+00
              0.123885340575721E+00
              0.501418210379315E+00
             -0.134607249115999E+00
              0.121186643081310E+01
             -0.136099326064201E+01
             -0.172864420252017E-01
             -0.155503740147331E+00
              0.646603051927105E+00
             -0.870658907049149E+00
             -0.570040318975566E+00
              0.249224196022821E+00
              0.915483796333111E+00
              0.155426659356480E+01
              0.606116923196542E+00
              0.948145233155862E+00
             -0.498429979782906E+00
              0.129660791625025E+01
              0.128613651813205E+01
             -0.172636221157809E-01
              0.612565707847522E+00
              0.766933135684874E+00
             -0.418589446694693E+00
              0.311016834865349E+00
              0.134865426191171E+01
             -0.425020235356933E+00
             -0.122777363424383E+00
             -0.127209594431002E+01
              0.447631151229318E+00
             -0.321182801911046E+00
              0.442998300571327E+00
              0.181967544353316E-01
             -0.797007722870279E+00
              0.928135721793931E+00
              0.801539384614505E+00
             -0.656039869360645E+00
              0.350891395427532E+00
             -0.123056855910426E+01
             -0.111662631219212E+01
              0.508797471899701E+00
             -0.139113000362019E+01
             -0.715891034389706E+00
              0.461186188997686E-02
              0.176119533972920E+01
             -0.463339191860173E+00
             -0.226781533087722E+00
             -0.424299226750065E+00
              0.228369050033034E+01
              0.376889872477711E+00
             -0.870673010989515E+00
              0.145377009519261E+01
              0.127340424925926E+01
              0.669296861420581E+00
              0.163900124599378E+01
              0.179692641750255E+01
             -0.587723446801871E-01
             -0.588335515884444E+00
             -0.498655910767194E+00
              0.569049991274395E+00
              0.804055539069942E+00
             -0.151869562276008E+00
             -0.496234658813194E+00
             -0.116622455009988E+01
             -0.407576916727102E+00
             -0.954362688227810E+00
              0.698571101111706E+00
              0.366508050431754E+00
              0.123140087869404E+01
              0.288150340118009E+00
             -0.468629928974117E+00
             -0.180727618969840E+00
              0.811438109575126E+00
              0.210810489935284E+00
              0.127078219810397E+01
              0.112929315094510E+01
             -0.165104869253462E+00
             -0.186419380756481E+00
             -0.209011258622116E+01
              0.100320597595907E+01
              0.977613507073372E-03
              0.119166011421953E+01
             -0.531972588091941E+00
             -0.135901307312607E+01
              0.393690321796713E+00
              0.148994190581492E+01
             -0.514925603606744E+00
              0.134601356950992E+01
             -0.146595229222913E+01
             -0.537662981893009E+00
             -0.176690399117710E+01
              0.318589382334318E+00
              0.867698499294356E-01
              0.183999154318471E+00
             -0.127528405558806E+01
              0.191580287636985E+01
              0.110224732631112E+01
              0.123132798998355E+00
             -0.113213162629062E+01
              0.416781745761238E+00
             -0.360534106895093E+00
             -0.314374220917424E+00
             -0.569525177590176E+00
              0.334240203122540E+00
             -0.363252548727095E+00
             -0.369991220613007E+00
              0.487233811451588E+00
              0.474272480986961E+00
             -0.183919498606111E+01
              0.407921461551251E+00
              0.135124036896667E+01
              0.867423113477606E+00
             -0.265530257427710E+00
             -0.513306857523057E-01
             -0.751196198514311E+00
              0.113012479563132E+01
              0.172396053714850E+00
             -0.555120711263166E-01
             -0.125908448901493E+00
              0.221523647119650E+01
             -0.160450775252947E+00
              0.436248449459564E+00
              0.152931741130408E+01
              0.195802639456452E+01
              0.121058086954749E+01
              0.792615355407222E+00
             -0.131376124484879E+01
             -0.950435796057530E+00
              0.743095086260641E+00
              0.111103535614377E+00
              0.625604423321800E+00
              0.252888571023949E+00
              0.133643010052981E+01
             -0.162467160080729E+01
             -0.998122264507765E+00
             -0.240536092942456E+00
             -0.178018962667552E+01
              0.397443500651150E+00
              0.957830696384846E+00
             -0.182705086693602E-02
             -0.415850973989219E+00
              0.422461510627655E+00
              0.274409628905721E+01
              0.655952798063408E+00
              0.361508068306970E+00
             -0.958276493850297E+00
             -0.117142608833394E+01
             -0.269559842723967E+00
              0.582556878117182E+00
             -0.117712592142530E+00
              0.545177481131644E+00
              0.727185278343683E+00
             -0.124432424594854E+01
              0.550895040452462E+00
              0.658731099626472E+00
              0.114035799961322E+01
             -0.212457184763444E+00
              0.119384559952341E+00
             -0.140181880994869E+00
             -0.895754351422448E+00
             -0.150195485625595E+01
              0.153215753293888E+01
             -0.212477603413918E+00
             -0.106735588288400E+01
              0.184118665919942E+00
             -0.629583761700807E+00
              0.173373700059516E+01
             -0.469653647937724E+00
             -0.780618439068440E+00
              0.770175461546002E+00
             -0.322484625621242E+00
              0.951086345449147E+00
              0.673169204981185E-01
              0.187002609300158E+01
              0.108426187293061E+01
              0.275360007533100E+00
             -0.811262677930259E+00
              0.587881270750202E+00
             -0.110097431747849E+01
             -0.837499783108595E-01
              0.131674542518459E+01
             -0.515391167683952E+00
             -0.878073335635954E+00
             -0.474741055768728E+00
              0.104829006609862E+01
              0.229367047198152E+00
             -0.164813815918854E+01
              0.698187220078852E+00
              0.108906770752491E+00
              0.233021494192293E+00
             -0.991887213767599E+00
              0.210870185989352E+00
              0.697140081555053E+00
              0.916865179069867E+00
              0.134031172107912E+01
              0.728151125556109E+00
              0.157819034452152E+00
             -0.114051414263601E+01
             -0.851437811535702E+00
             -0.129372411547180E+01
             -0.307363465750186E+00
              0.702512283264843E+00
              0.528272801006535E-02
              0.105881984170969E+01
             -0.652578588319496E+00
              0.350990208086174E+00
             -0.491522795144452E+00
             -0.545735183946831E+00
              0.119930875120279E+01
              0.105172280540459E+00
              0.127804745047790E+01
              0.109129406178328E+00
              0.388723195486811E+00
             -0.327196196784747E+00
              0.121749094057536E+01
             -0.346625624965681E+00
              0.427507791633719E-02
             -0.159287091696799E+01
             -0.137085706309660E+00
              0.140810263528305E+01
              0.129649110692250E+01
              0.519554183799544E+00
             -0.325381945879052E+00
              0.119554091907367E+00
             -0.496803169985241E+00
             -0.425377521603448E+00
              0.183537732652438E+01
              0.171459794466028E+00
             -0.600054901639828E+00
             -0.215328370003959E+01
             -0.843010360411077E+00
             -0.775058349059174E+00
             -0.122670684072043E+01
             -0.121919378256830E+01
             -0.143408819604179E+01
             -0.914066499311554E+00
             -0.550182902573033E+00
             -0.981524370811203E+00
              0.894331950732956E+00
             -0.340425178629140E+00
             -0.167625013513776E+01
              0.841106766437813E+00
             -0.693083799365069E+00
             -0.161033157485099E+01
              0.205360277151948E+01
             -0.525590692655402E+00
              0.294703368867210E+00
              0.756423104192074E+00
              0.299894203026418E+00
              0.544248922372077E+00
              0.222535768885881E-01
              0.311960475170757E-01
             -0.266879491127490E+00
             -0.150361968921423E+01
              0.218749380529502E+00
             -0.242154862550236E+01
              0.149558174917618E+01
             -0.818077583559962E+00
             -0.398887053043784E+00
             -0.435213708395448E+00
              0.469458323020626E+00
             -0.318679645995463E+00
              0.566804469782440E+00
             -0.120265909907118E+01
              0.726203786752585E+00
              0.883733504035491E+00
              0.160841580537403E+00
              0.191545095068824E+00
              0.439833720560214E+00
              0.213451698865990E+00
              0.597975595910060E+00
             -0.726358726673788E-01
             -0.155040216298698E+01
              0.191091502912881E+00
             -0.716127419214470E+00
             -0.598062631705583E-01
              0.115984399775559E+01
             -0.161722943401877E+01
              0.484164303350294E-01
              0.790057403669895E-01
              0.197568401723443E+00
              0.614684132194417E+00
             -0.254291081653875E+00
              0.171662325917638E+01
              0.715965541318330E+00
             -0.284305816432343E+00
             -0.166079003409345E+00
              0.137166865409595E+00
              0.159518809751672E+01
             -0.991430371956724E+00
             -0.205132153194845E+01
              0.594827543357330E+00
             -0.168774564044837E+00
             -0.326260264990836E+00
              0.396958937459590E+00
              0.152502015998820E+01
              0.835435415570990E+00
             -0.343282642639060E+00
             -0.111424946640441E+01
             -0.274021013061753E+00
              0.554677793618976E+00
             -0.374564139923675E+00
             -0.156039253204298E+01
             -0.210056749087276E+00
             -0.200823958070122E+01
             -0.106454094786288E+01
              0.179740148003141E+01
             -0.107209925204062E+01
             -0.146592692669354E+01
             -0.107891710134955E+01
             -0.827899635727585E+00
              0.699863939958190E+00
              0.174240578514237E+01
             -0.217898198256707E+00
              0.541761803998110E+00
             -0.425905870111132E+00
             -0.139191583665646E+01
              0.105970344791161E+01
             -0.995930842329168E+00
              0.493160604183974E+00
              0.562038952547630E+00
             -0.334678767670233E+00
              0.732406659320842E+00
              0.772485273914258E+00
              0.249837650810796E+01
             -0.190951141526723E+00
             -0.118951373615754E+01
             -0.136158386677381E+01
             -0.406248397011141E+00
             -0.885228278601704E+00
              0.187621514843756E+01
             -0.924212203243551E+00
              0.210730420937163E+00
              0.346662541227927E-01
             -0.384758743627640E+00
             -0.177133250336766E+01
             -0.133667632124087E+00
              0.205641301891015E+01
              0.473133734501892E+00
              0.148633788965128E+00
             -0.122635181230663E+01
             -0.110844930370421E+01
             -0.389052077776169E+00
              0.922843766520463E+00
             -0.550297382543104E+00
              0.204619598886616E+01
             -0.988037156979246E+00
              0.397237619076849E+00
             -0.251366070687268E+00
             -0.125369841641426E+01
              0.146573210984429E+00
             -0.116781689739714E+01
             -0.151158062959247E+01
              0.237236265402522E+00
              0.293359606451005E-01
              0.100105109546408E+01
              0.562648150935781E+00
             -0.722603282636482E+00
              0.437977391480965E+00
             -0.183147487921149E+01
             -0.953854117617652E+00
              0.190145388913173E+01
              0.496452115700514E-01
             -0.880908505833382E-01
             -0.489158044089997E+00
             -0.437326964465079E-02
             -0.261961093689935E+00
              0.189666784582422E+01
              0.844329018369772E+00
             -0.158880664028334E+00
              0.236676903755555E-01
             -0.769188253990471E+00
             -0.234954514871863E+00
             -0.125581031926303E+01
              0.106306941865459E+01
              0.134190031472495E+00
              0.146821791242012E+00
              0.399614237408847E+00
             -0.300324566003602E+00
             -0.476526217930618E+00
              0.211884047725784E+00
             -0.229787870615318E+01
             -0.201033829321307E+00
             -0.204622415605520E+00
             -0.121293875344280E+00
              0.974792778557521E+00
              0.133155119253069E+01
              0.374012972960982E+00
             -0.190170128472762E+01
              0.130640539168492E+01
             -0.496075272744875E+00
             -0.756219895895192E+00
             -0.178626214525765E+01
             -0.533809608370613E+00
              0.131000627165181E+01
              0.695869974051579E+00
              0.342148429955799E+00
              0.727599512695615E+00
             -0.114161440672697E+01
             -0.101470495420257E+01
              0.129386470482956E+01
              0.854813954456356E+00
              0.951461762604839E+00
              0.207028598120211E+00
              0.223723266468983E+00
              0.107970409262398E+01
              0.201491680916647E+01
             -0.348109004906674E+00
              0.831841188066313E+00
             -0.637539005979168E+00
             -0.895279261332671E+00
             -0.714089498438875E+00
             -0.698456601945574E+00
             -0.290013642851856E+00
             -0.970242662749000E+00
             -0.378017087016053E+00
             -0.262552347754025E+01
              0.637047380377401E+00
              0.599668361431056E+00
             -0.704961946170823E-01
             -0.746129516297790E+00
             -0.360980101941549E+00
             -0.116749302670929E+01
              0.102931034195365E+00
              0.161384381925971E+01
             -0.382944931070126E+00
             -0.392549852755700E+00
              0.391860478833534E+00
             -0.104654552994978E+01
              0.174781812673041E+01
              0.311389263446853E+00
              0.108366827558028E+00
              0.106251391722407E+01
             -0.142290518154009E+00
              0.121228144838519E+01
              0.421666943141793E+00
             -0.210970073554932E-01
              0.285770806087315E+00
             -0.220947147730820E+00
              0.136394084140333E+01
              0.141275089289072E+00
              0.449341779784778E+00
             -0.184073020042133E+00
              0.211072885865884E+00
             -0.192679852753428E+01
             -0.709561920062994E+00
             -0.102681194831367E+01
              0.101741488482270E+01
             -0.739341447016977E+00
             -0.111752939594317E+01
              0.122453185088870E+01
             -0.281097546104767E+00
              0.841620936125541E+00
             -0.181246853668320E+01
              0.343408884245486E+00
              0.715770843402521E-01
              0.148763087479116E+00
             -0.292629539546620E+00
             -0.134128757011133E+00
              0.102289778130846E+01
              0.561389383984618E-01
             -0.110010739041032E+01
             -0.456488247350801E+00
              0.361584178142810E+00
             -0.235550114900397E+01
             -0.176460018571890E+01
              0.143978443841464E-01
              0.348357053495302E+00
             -0.106520678648622E+01
              0.359559602106607E-01
              0.209477839212121E+01
              0.578511609056791E+00
             -0.110181777827371E+01
              0.154981904235793E+00
             -0.220081527721830E+00
              0.273943303594138E+00
             -0.745394932647288E+00
              0.485724654873765E+00
              0.474852951851936E+00
             -0.183452228832658E+00
              0.231316091976412E+01
             -0.660706471411743E-01
             -0.623748281136580E+00
              0.659608034941343E+00
              0.878591354471927E+00
             -0.642434905659393E+00
             -0.147782822400661E-01
              0.201440891951723E+01
             -0.217453106508430E-01
              0.106068195894491E+01
              0.339856617437064E+00
             -0.131792602670099E+00
             -0.298747985901988E+00
              0.957194829698108E+00
             -0.122109612522932E+01
             -0.339258077780409E-01
             -0.421803908490878E+00
             -0.815526742109441E+00
              0.225134093992073E+00
              0.519072131641114E+00
             -0.535739340829799E-01
             -0.326734045239903E-01
             -0.864072221212840E+00
              0.299013806829127E+00
             -0.255632344321453E-01
             -0.439063298511419E+00
             -0.406748058042874E+00
              0.327504563138510E+00
              0.705638177846879E-02
             -0.797757382535417E+00
             -0.220339196230087E+01
              0.139488661068489E+00
              0.280810491044226E+00
             -0.100725268469754E+01
             -0.527401587863254E+00
              0.168695304385000E+01
              0.282066548401812E+00
              0.929158301548927E+00
              0.239318794693920E+00
              0.826418886074723E+00
              0.403034328073772E-01
             -0.813515649333695E+00
             -0.275814692579655E+00
              0.103305041993000E+00
              0.651630374539475E+00
              0.150497274004040E+01
              0.101130148186777E+01
              0.645365156722502E-01
              0.227985540769200E+00
              0.124565007443199E+01
              0.585475055524106E+00
             -0.140871368647058E+01
             -0.567217917093801E+00
              0.212090486303974E+00
              0.213832320239587E+00
              0.517928279840246E+00
             -0.104083684770626E+01
              0.806895900138871E-01
              0.858268420007834E+00
              0.996023922629860E+00
             -0.863112134732536E+00
              0.812801564783214E-01
             -0.546613744600677E-01
             -0.441991292194190E+00
             -0.499254372060499E+00
             -0.219881731824664E+00
             -0.288010876067801E+00
              0.239809521347575E+00
              0.862895219170239E+00
             -0.672943302222560E+00
              0.166524777479355E+01
              0.679552474263051E+00
              0.543762730546317E+00
              0.774135424031352E+00
              0.485035084162779E+00
              0.740129424708014E+00
              0.113918707489719E+01
             -0.972909040709276E+00
              0.128913768016068E+01
             -0.234124504105979E+01
              0.643107246079988E+00
             -0.214641947122518E+01
              0.164564745278750E+01
              0.161178541232626E+01
             -0.166090453468648E+00
             -0.950376986173555E+00
             -0.888577167619017E+00
             -0.108860623249887E+01
             -0.135762144096680E+01
              0.111756913924770E+01
              0.878804007274303E+00
              0.499577680968519E+00
              0.503563898297411E+00
              0.942673506155349E+00
             -0.846894679054001E+00
             -0.288302696802988E+00
              0.108554850294057E+01
             -0.249385514882252E+00
              0.101805584376961E+01
              0.160530761916675E+01
             -0.799857543888725E-01
             -0.155949947089838E+01
              0.130653252196000E+00
              0.302589743118533E-01
             -0.215345519594283E+00
              0.676933370479453E-01
             -0.131786509669895E+01
             -0.142636822971101E+00
              0.298028287302324E+00
              0.310860184272923E+00
              0.103454428902962E+01
             -0.874094222924047E+00
              0.102237301424451E+01
             -0.781607152567371E+00
              0.574099683436141E+00
              0.904467146801738E+00
 
 BEEF-vdW xc energy contributions
           1 :   -14.2610030594204     
           2 :    11.6837994640831     
           3 :   -7.96463348763299     
           4 :    4.45812523890552     
           5 :   -1.82991747889107     
           6 :   0.237058644391164     
           7 :   0.454387549435861     
           8 :  -0.553809388800300     
           9 :   0.416551101611317     
          10 :  -0.320215233306772     
          11 :   0.368071811058211     
          12 :  -0.502886296410022     
          13 :   0.601245996397640     
          14 :  -0.576290387234994     
          15 :   0.417628807158058     
          16 :  -0.186450482398392     
          17 :  -2.562076752936804E-002
          18 :   0.145440385386543     
          19 :  -0.156126924598816     
          20 :   9.559365905398920E-002
          21 :  -2.595524927972548E-002
          22 :  -8.869385904151983E-003
          23 :   1.743661659315165E-003
          24 :   2.203831573277171E-002
          25 :  -2.945398819142042E-002
          26 :   8.339200457271545E-003
          27 :   2.836889108311880E-002
          28 :  -6.619879619139724E-002
          29 :   9.644999892762129E-002
          30 :  -0.111263477221311     
          31 :   -1.95483428456201     
          32 :   -1.21610435534812     

     Writing output data file ./pwscf.save/
 
     init_run     :     68.34s CPU     71.05s WALL (       1 calls)
     electrons    :    658.06s CPU    714.83s WALL (       1 calls)
     forces       :     28.37s CPU     30.82s WALL (       1 calls)

     Called by init_run:
     wfcinit      :      2.26s CPU      2.34s WALL (       1 calls)
     potinit      :     57.02s CPU     59.06s WALL (       1 calls)
     hinit0       :      7.38s CPU      7.51s WALL (       1 calls)

     Called by electrons:
     c_bands      :    121.66s CPU    122.89s WALL (      18 calls)
     sum_band     :     46.98s CPU     54.40s WALL (      18 calls)
     v_of_rho     :    381.19s CPU    417.75s WALL (      19 calls)
     newd         :     18.56s CPU     26.14s WALL (      19 calls)
     PAW_pot      :      2.55s CPU      2.55s WALL (      19 calls)
     mix_rho      :    138.03s CPU    144.26s WALL (      18 calls)
     vdW_kernel   :     33.86s CPU     33.86s WALL (       1 calls)

     Called by c_bands:
     init_us_2    :      1.78s CPU      1.82s WALL (      37 calls)
     regterg      :    117.70s CPU    118.92s WALL (      18 calls)

     Called by *egterg:
     rdiaghg      :      0.03s CPU      0.04s WALL (     159 calls)
     h_psi        :    103.44s CPU    103.47s WALL (     160 calls)
     s_psi        :      3.56s CPU      3.56s WALL (     160 calls)
     g_psi        :      0.38s CPU      0.38s WALL (     141 calls)

     Called by h_psi:
     h_psi:calbec :      2.61s CPU      2.61s WALL (     160 calls)
     vloc_psi     :     96.66s CPU     96.68s WALL (     160 calls)
     add_vuspsi   :      3.61s CPU      3.61s WALL (     160 calls)

     General routines
     calbec       :      3.13s CPU      3.13s WALL (     182 calls)
     fft          :    301.68s CPU    301.70s WALL (    3050 calls)
     ffts         :     58.31s CPU     58.31s WALL (     609 calls)
     fftw         :     90.48s CPU     90.48s WALL (     938 calls)
 
     Parallel routines
 
     PWSCF        :  21m53.66s CPU  23m59.28s WALL

 
   This run was terminated on:  23:23:45   3Jan2023            

=------------------------------------------------------------------------------=
   JOB DONE.
=------------------------------------------------------------------------------=
