
     Program PWSCF v.6.8 starts on 23Jan2023 at 15:24:23 

     This program is part of the open-source Quantum ESPRESSO suite
     for quantum simulation of materials; please cite
         "P. Giannozzi et al., J. Phys.:Condens. Matter 21 395502 (2009);
         "P. Giannozzi et al., J. Phys.:Condens. Matter 29 465901 (2017);
         "P. Giannozzi et al., J. Chem. Phys. 152 154105 (2020);
          URL http://www.quantum-espresso.org", 
     in publications or presentations arising from this work. More details at
     http://www.quantum-espresso.org/quote

     Parallel version (MPI), running on     1 processors

     MPI processes distributed on     1 nodes
     168767 MiB available memory on the printing compute node when the environment starts
 
     Reading input from chch2ch-gas-ensemble.in
Warning: card &CELL ignored
Warning: card / ignored

     Current dimensions of program PWSCF are:
     Max number of different atomic species (ntypx) = 10
     Max number of k-points (npk) =  40000
     Max angular momentum in pseudopotentials (lmaxx) =  4
     file C.pbe-n-kjpaw_psl.1.0.0.UPF: wavefunction(s)  2S 2P renormalized
     file H.pbe-kjpaw_psl.1.0.0.UPF: wavefunction(s)  1S renormalized

     **************************************************************************
     Initializing libbeef V0.1.2 with the BEEF-vdW functional.
     Citation: Wellendorff et al., PRB 85, 235149 (2012).
     **************************************************************************


     IMPORTANT: XC functional enforced from input :
     Exchange-correlation= BEEF-VDW
                           (   1   4  43  14   2   0   0)
     Any further DFT definition will be discarded
     Please, verify this is what you really want


     gamma-point specific algorithms are used

     Subspace diagonalization in iterative solution of the eigenvalue problem:
     a serial algorithm will be used

 
     G-vector sticks info
     --------------------
     sticks:   dense  smooth     PW     G-vecs:    dense   smooth      PW
     Sum       34113   34113   8527              4828389  4828389  603697
 
     Using Slab Decomposition
 


     bravais-lattice index     =            0
     lattice parameter (alat)  =      43.4482  a.u.
     unit-cell volume          =   76900.5207 (a.u.)^3
     number of atoms/cell      =            7
     number of atomic types    =            2
     number of electrons       =        16.00
     number of Kohn-Sham states=           12
     kinetic-energy cutoff     =      60.0000  Ry
     charge density cutoff     =     240.0000  Ry
     scf convergence threshold =      1.0E-06
     mixing beta               =       0.7000
     number of iterations used =            8  local-TF  mixing
     Exchange-correlation= BEEF-VDW
                           (   1   4  43  14   2   0   0)

     celldm(1)=  43.448207  celldm(2)=   0.000000  celldm(3)=   0.000000
     celldm(4)=   0.000000  celldm(5)=   0.000000  celldm(6)=   0.000000

     crystal axes: (cart. coord. in units of alat)
               a(1) = (   1.000000   0.000000   0.000000 )  
               a(2) = (   0.000000   0.946090   0.000000 )  
               a(3) = (   0.000000   0.000000   0.991017 )  

     reciprocal axes: (cart. coord. in units 2 pi/alat)
               b(1) = (  1.000000  0.000000  0.000000 )  
               b(2) = (  0.000000  1.056982  0.000000 )  
               b(3) = (  0.000000  0.000000  1.009064 )  


     PseudoPot. # 1 for C  read from file:
     /users/bkreitz1/quantum-espresso/potentials/C.pbe-n-kjpaw_psl.1.0.0.UPF
     MD5 check sum: a169b0ebad56f5ec0d79c4633f80bf22
     Pseudo is Projector augmented-wave + core cor, Zval =  4.0
     Generated using 'atomic' code by A. Dal Corso  v.6.7MaX
     Shape of augmentation charge: PSQ
     Using radial grid of 1073 points,  4 beta functions with: 
                l(1) =   0
                l(2) =   0
                l(3) =   1
                l(4) =   1
     Q(r) pseudized with 0 coefficients 


     PseudoPot. # 2 for H  read from file:
     /users/bkreitz1/quantum-espresso/potentials/H.pbe-kjpaw_psl.1.0.0.UPF
     MD5 check sum: ae98473e6dc62675f0d0baffdab24f65
     Pseudo is Projector augmented-wave, Zval =  1.0
     Generated using 'atomic' code by A. Dal Corso  v.6.7MaX
     Shape of augmentation charge: PSQ
     Using radial grid of  929 points,  2 beta functions with: 
                l(1) =   0
                l(2) =   0
     Q(r) pseudized with 0 coefficients 


     atomic species   valence    mass     pseudopotential
        C              4.00    12.01100     C ( 1.00)
        H              1.00     1.00800     H ( 1.00)

     No symmetry found



   Cartesian axes

     site n.     atom                  positions (alat units)
         1           C   tau(   1) = (   0.4768761   0.4897821   0.4748568  )
         2           C   tau(   2) = (   0.5126278   0.4758285   0.5281427  )
         3           C   tau(   3) = (   0.5303944   0.4753670   0.4649196  )
         4           H   tau(   4) = (   0.5057991   0.4348615   0.5510551  )
         5           H   tau(   5) = (   0.4347039   0.5025305   0.4591248  )
         6           H   tau(   6) = (   0.5273067   0.5110262   0.5563248  )
         7           H   tau(   7) = (   0.5652602   0.4673490   0.4352322  )

     number of k points=     1  Gaussian smearing, width (Ry)=  0.0050
                       cart. coord. in units 2pi/alat
        k(    1) = (   0.0000000   0.0000000   0.0000000), wk =   2.0000000

     Dense  grid:  2414195 G-vectors     FFT dimensions: ( 216, 216, 216)

     Estimated max dynamical RAM per process >       3.85 GB

     Initial potential from superposition of free atoms

     starting charge   15.99984, renormalised to   16.00000

     negative rho (up, down):  9.221E-03 0.000E+00


     %%%%%%%%%%%%%%%%%%%%%%%%%%%%%%%%%%%%%%%%%%%%%%%%%%%%%%%%%%%%%%%%%%%%%%%%
     %                                                                      %
     % You are using vdW-DF, which was implemented by the Thonhauser group. %
     % Please cite the following two papers that made this development      %
     % possible and the two reviews that describe the various versions:     %
     %                                                                      %
     %   T. Thonhauser et al., PRL 115, 136402 (2015).                      %
     %   T. Thonhauser et al., PRB 76, 125112 (2007).                       %
     %   K. Berland et al., Rep. Prog. Phys. 78, 066501 (2015).             %
     %   D.C. Langreth et al., J. Phys.: Condens. Matter 21, 084203 (2009). %
     %                                                                      %
     %                                                                      %
     % If you are calculating the stress with vdW-DF, please also cite:     %
     %                                                                      %
     %   R. Sabatini et al., J. Phys.: Condens. Matter 24, 424209 (2012).   %
     %                                                                      %
     %%%%%%%%%%%%%%%%%%%%%%%%%%%%%%%%%%%%%%%%%%%%%%%%%%%%%%%%%%%%%%%%%%%%%%%%


     Starting wfcs are   16 randomized atomic wfcs
     Checking if some PAW data can be deallocated... 

     total cpu time spent up to now is       70.5 secs

     Self-consistent Calculation

     iteration #  1     ecut=    60.00 Ry     beta= 0.70
     Davidson diagonalization with overlap
     ethr =  1.00E-02,  avg # of iterations =  5.0

     negative rho (up, down):  7.778E-03 0.000E+00

     total cpu time spent up to now is      109.0 secs

     total energy              =     -61.76044788 Ry
     estimated scf accuracy    <       0.87864999 Ry

     iteration #  2     ecut=    60.00 Ry     beta= 0.70
     Davidson diagonalization with overlap
     ethr =  5.49E-03,  avg # of iterations =  1.0

     negative rho (up, down):  5.141E-03 0.000E+00

     total cpu time spent up to now is      145.4 secs

     total energy              =     -61.63521089 Ry
     estimated scf accuracy    <       0.27530729 Ry

     iteration #  3     ecut=    60.00 Ry     beta= 0.70
     Davidson diagonalization with overlap
     ethr =  1.72E-03,  avg # of iterations = 10.0

     negative rho (up, down):  2.053E-03 0.000E+00

     total cpu time spent up to now is      186.1 secs

     total energy              =     -61.67710846 Ry
     estimated scf accuracy    <       0.03934978 Ry

     iteration #  4     ecut=    60.00 Ry     beta= 0.70
     Davidson diagonalization with overlap
     ethr =  2.46E-04,  avg # of iterations =  4.0

     negative rho (up, down):  4.977E-02 0.000E+00

     total cpu time spent up to now is      227.0 secs

     total energy              =     -61.67009390 Ry
     estimated scf accuracy    <       0.02572433 Ry

     iteration #  5     ecut=    60.00 Ry     beta= 0.70
     Davidson diagonalization with overlap
     ethr =  1.61E-04,  avg # of iterations =  2.0

     negative rho (up, down):  5.167E-02 0.000E+00

     total cpu time spent up to now is      265.4 secs

     total energy              =     -61.66989231 Ry
     estimated scf accuracy    <       0.01016559 Ry

     iteration #  6     ecut=    60.00 Ry     beta= 0.70
     Davidson diagonalization with overlap
     ethr =  6.35E-05,  avg # of iterations =  2.0

     negative rho (up, down):  1.498E-01 0.000E+00

     total cpu time spent up to now is      304.3 secs

     total energy              =     -61.67101716 Ry
     estimated scf accuracy    <       0.00464476 Ry

     iteration #  7     ecut=    60.00 Ry     beta= 0.70
     Davidson diagonalization with overlap
     ethr =  2.90E-05,  avg # of iterations =  6.0

     negative rho (up, down):  1.143E-01 0.000E+00

     total cpu time spent up to now is      345.8 secs

     total energy              =     -61.66950404 Ry
     estimated scf accuracy    <       0.00258812 Ry

     iteration #  8     ecut=    60.00 Ry     beta= 0.70
     Davidson diagonalization with overlap
     ethr =  1.62E-05,  avg # of iterations =  7.0

     negative rho (up, down):  1.120E-01 0.000E+00

     total cpu time spent up to now is      388.2 secs

     total energy              =     -61.66975445 Ry
     estimated scf accuracy    <       0.00161685 Ry

     iteration #  9     ecut=    60.00 Ry     beta= 0.70
     Davidson diagonalization with overlap
     ethr =  1.01E-05,  avg # of iterations =  2.0

     negative rho (up, down):  7.847E-02 0.000E+00

     total cpu time spent up to now is      426.4 secs

     total energy              =     -61.66858676 Ry
     estimated scf accuracy    <       0.00108964 Ry

     iteration # 10     ecut=    60.00 Ry     beta= 0.70
     Davidson diagonalization with overlap
     ethr =  6.81E-06,  avg # of iterations =  7.0

     negative rho (up, down):  5.653E-02 0.000E+00

     total cpu time spent up to now is      467.6 secs

     total energy              =     -61.66845290 Ry
     estimated scf accuracy    <       0.00028805 Ry

     iteration # 11     ecut=    60.00 Ry     beta= 0.70
     Davidson diagonalization with overlap
     ethr =  1.80E-06,  avg # of iterations =  6.0

     negative rho (up, down):  4.344E-02 0.000E+00

     total cpu time spent up to now is      508.5 secs

     total energy              =     -61.66843682 Ry
     estimated scf accuracy    <       0.00012276 Ry

     iteration # 12     ecut=    60.00 Ry     beta= 0.70
     Davidson diagonalization with overlap
     ethr =  7.67E-07,  avg # of iterations =  6.0

     negative rho (up, down):  2.963E-02 0.000E+00

     total cpu time spent up to now is      547.8 secs

     total energy              =     -61.66848035 Ry
     estimated scf accuracy    <       0.00004675 Ry

     iteration # 13     ecut=    60.00 Ry     beta= 0.70
     Davidson diagonalization with overlap
     ethr =  2.92E-07,  avg # of iterations =  3.0

     negative rho (up, down):  2.690E-02 0.000E+00

     total cpu time spent up to now is      586.1 secs

     total energy              =     -61.66848049 Ry
     estimated scf accuracy    <       0.00007850 Ry

     iteration # 14     ecut=    60.00 Ry     beta= 0.70
     Davidson diagonalization with overlap
     ethr =  2.92E-07,  avg # of iterations =  2.0

     negative rho (up, down):  2.022E-02 0.000E+00

     total cpu time spent up to now is      623.0 secs

     total energy              =     -61.66849011 Ry
     estimated scf accuracy    <       0.00001277 Ry

     iteration # 15     ecut=    60.00 Ry     beta= 0.70
     Davidson diagonalization with overlap
     ethr =  7.98E-08,  avg # of iterations =  6.0

     negative rho (up, down):  1.824E-02 0.000E+00

     total cpu time spent up to now is      663.2 secs

     total energy              =     -61.66850377 Ry
     estimated scf accuracy    <       0.00001236 Ry

     iteration # 16     ecut=    60.00 Ry     beta= 0.70
     Davidson diagonalization with overlap
     ethr =  7.72E-08,  avg # of iterations =  2.0

     negative rho (up, down):  1.770E-02 0.000E+00

     total cpu time spent up to now is      700.0 secs

     total energy              =     -61.66850307 Ry
     estimated scf accuracy    <       0.00000421 Ry

     iteration # 17     ecut=    60.00 Ry     beta= 0.70
     Davidson diagonalization with overlap
     ethr =  2.63E-08,  avg # of iterations =  2.0

     negative rho (up, down):  1.714E-02 0.000E+00

     total cpu time spent up to now is      728.3 secs

     End of self-consistent calculation

          k = 0.0000 0.0000 0.0000 (301849 PWs)   bands (ev):

   -22.0225 -15.0627 -14.2637 -12.7111 -10.8954  -8.7005  -7.3583  -6.3641
    -1.3061  -0.7248  -0.4282  -0.4199

     the Fermi energy is    -5.4804 ev

!    total energy              =     -61.66850264 Ry

     total all-electron energy =      -234.960777 Ry
     estimated scf accuracy    <       0.00000064 Ry
     smearing contrib. (-TS)   =      -0.00000000 Ry
     internal energy E=F+TS    =     -61.66850264 Ry

     The total energy is F=E-TS. E is the sum of the following terms:
     one-electron contribution =    -155.63964758 Ry
     hartree contribution      =      79.88862299 Ry
     xc contribution           =     -17.36988395 Ry
     ewald contribution        =      51.08591335 Ry
     one-center paw contrib.   =     -19.63350746 Ry

     convergence has been achieved in  17 iterations

     negative rho (up, down):  1.714E-02 0.000E+00

     Forces acting on atoms (cartesian axes, Ry/au):

     atom    1 type  1   force =     0.00030028    0.00031342    0.00131705
     atom    2 type  1   force =     0.00007596    0.00141790   -0.00006304
     atom    3 type  1   force =    -0.00825336    0.00023080    0.00981238
     atom    4 type  2   force =     0.00032820    0.00010076   -0.00188929
     atom    5 type  2   force =     0.00101746   -0.00015362   -0.00109571
     atom    6 type  2   force =     0.00019555   -0.00061036   -0.00100026
     atom    7 type  2   force =     0.00633591   -0.00129889   -0.00708113

     Total force =     0.016362     Total SCF correction =     0.000771

     negative rho (up, down):  1.714E-02 0.000E+00

     negative rho (up, down):  1.714E-02 0.000E+00

     negative rho (up, down):  1.714E-02 0.000E+00

     negative rho (up, down):  1.714E-02 0.000E+00

     negative rho (up, down):  1.714E-02 0.000E+00

     negative rho (up, down):  1.714E-02 0.000E+00

     negative rho (up, down):  1.714E-02 0.000E+00

     negative rho (up, down):  1.714E-02 0.000E+00

     negative rho (up, down):  1.714E-02 0.000E+00

     negative rho (up, down):  1.714E-02 0.000E+00

     negative rho (up, down):  1.714E-02 0.000E+00

     negative rho (up, down):  1.714E-02 0.000E+00

     negative rho (up, down):  1.714E-02 0.000E+00

     negative rho (up, down):  1.714E-02 0.000E+00

     negative rho (up, down):  1.714E-02 0.000E+00

     negative rho (up, down):  1.714E-02 0.000E+00

     negative rho (up, down):  1.714E-02 0.000E+00

     negative rho (up, down):  1.714E-02 0.000E+00

     negative rho (up, down):  1.714E-02 0.000E+00

     negative rho (up, down):  1.714E-02 0.000E+00

     negative rho (up, down):  1.714E-02 0.000E+00

     negative rho (up, down):  1.714E-02 0.000E+00

     negative rho (up, down):  1.714E-02 0.000E+00

     negative rho (up, down):  1.714E-02 0.000E+00

     negative rho (up, down):  1.714E-02 0.000E+00

     negative rho (up, down):  1.714E-02 0.000E+00

     negative rho (up, down):  1.714E-02 0.000E+00

     negative rho (up, down):  1.714E-02 0.000E+00

     negative rho (up, down):  1.714E-02 0.000E+00

     negative rho (up, down):  1.714E-02 0.000E+00

     negative rho (up, down):  1.714E-02 0.000E+00

     negative rho (up, down):  1.714E-02 0.000E+00

     negative rho (up, down):  1.714E-02 0.000E+00

     negative rho (up, down):  1.714E-02 0.000E+00
 BEEFens 2000 ensemble energies
             -0.131297052310417E+01
             -0.445255021669304E-01
             -0.260719751393700E+00
              0.893914332765650E+00
             -0.425258478513528E+00
             -0.306834472462121E+00
             -0.957101522552346E+00
             -0.196821829697406E+01
             -0.669672837920503E+00
             -0.731674946538737E+00
             -0.735313140634156E+00
              0.122613126925021E+00
              0.744485824036687E-01
             -0.108348883292527E+00
              0.765254680950860E-01
              0.958157962998580E+00
             -0.386446264966951E+00
             -0.177550268329743E+00
              0.504550223255105E+00
             -0.222819327002861E+01
              0.113273540174996E+01
             -0.388613495174386E+00
             -0.127030272752446E+00
             -0.174530399351462E+00
              0.648642225606686E-01
             -0.864593530632756E-01
              0.177564821220365E+01
             -0.496242458684648E+00
             -0.144631271424004E+00
             -0.114293417324391E+01
              0.136450258132818E+01
             -0.616142708192320E-01
             -0.839720996885587E+00
              0.346152674104102E+00
             -0.591631151960570E-01
              0.606025283284513E+00
              0.402894684311290E-01
             -0.180553314492693E-01
              0.798413788804273E+00
             -0.199416514164406E+01
              0.111351955246897E+01
              0.245054348437503E+00
             -0.267327167795277E+00
             -0.585043683046931E+00
              0.253116925757828E+00
             -0.369881165064129E+00
              0.103205649378991E+01
              0.703940823632795E+00
             -0.369977480105556E+00
             -0.650163191382305E+00
             -0.640258423047996E+00
             -0.762246397994974E+00
              0.478565991264194E+00
             -0.105218716741657E+01
              0.329888207509224E+00
              0.123129406723696E+01
              0.153263653560141E+01
              0.640939489650492E+00
              0.320579195506371E+00
              0.666924885192971E+00
              0.184962163771088E+01
              0.313531671625032E+00
             -0.110785367784185E+01
             -0.182420437048860E+00
             -0.602056669052608E+00
              0.125495229952915E+01
             -0.142825842167589E+01
             -0.120032122508404E+01
             -0.703142075232138E+00
             -0.407201076614969E+00
             -0.764743657674426E+00
              0.560538057410482E+00
              0.273497618756396E+00
              0.322181903157945E+00
             -0.785444005883432E+00
             -0.717729637072540E+00
             -0.119703678285379E+01
              0.626099132583370E+00
             -0.701128836741641E+00
              0.661582317274845E+00
             -0.179433440763471E+00
             -0.565038394335216E+00
             -0.992422324566958E+00
             -0.303779237953078E+00
             -0.342913423241050E+00
             -0.278791061235388E+00
              0.783506732952241E+00
              0.159407426229935E+01
             -0.921375332304743E+00
             -0.159343689896033E+01
             -0.367305848781654E+00
              0.218566294033947E+01
             -0.113916442580387E+01
              0.625201029924499E+00
             -0.236952684185479E+00
             -0.118028448868731E+01
              0.548908248973879E+00
              0.594520930092929E+00
             -0.312486775931971E+00
              0.574718553641416E+00
             -0.497795022052880E+00
             -0.125109799378201E+01
              0.205839586465111E+01
              0.912506381612008E+00
              0.407583672954568E+00
              0.253709938179759E+00
              0.484778210044038E+00
              0.163820840844254E+01
             -0.536487949631663E+00
              0.553945696361184E-01
             -0.278101314372699E+01
              0.343159132085203E+00
             -0.133593047411201E+01
              0.251722782178926E+00
              0.435063336843027E+00
             -0.752968491051405E+00
             -0.100579630138874E+01
              0.444753115399550E-01
             -0.632330993099075E+00
              0.904226066612745E+00
             -0.912499960700885E+00
             -0.181990513758397E+00
             -0.775347437099186E+00
             -0.625964084166926E-01
              0.111990351984318E+00
              0.490239965646126E+00
              0.101020658628670E-02
             -0.116093880603508E+00
              0.136057392930213E+01
              0.185799325362280E+01
              0.101049223773745E+01
              0.128667130036661E+01
             -0.258954241506842E+00
              0.162937219319012E+00
              0.102537898692263E+01
              0.127287748298929E+00
             -0.153422872938341E+01
             -0.909431517098868E+00
             -0.992864379893966E+00
             -0.590350882194313E+00
              0.523479048309859E+00
             -0.246023321415529E+01
             -0.252542765591072E+00
              0.944261154645608E+00
             -0.817324298023714E+00
             -0.587173875433429E+00
              0.119291036861873E+01
              0.985102379760121E+00
             -0.573661053685170E+00
              0.694416492148459E+00
             -0.513309758190271E+00
              0.760537062190822E+00
              0.127228906918615E+00
              0.198059361792796E+00
             -0.164913101842620E+01
             -0.953117342465757E+00
             -0.173819640763995E+00
             -0.791801871829085E-01
             -0.858553648852453E+00
              0.225928568863637E+01
             -0.214624137716703E+00
             -0.543129843982955E+00
              0.775204865106831E+00
             -0.890865459694634E+00
             -0.779599306686696E+00
              0.665238496345331E+00
              0.256420939173739E+00
              0.216889509830828E+00
              0.345448643474822E+00
             -0.216412958744385E+00
              0.187861613162544E+00
              0.116451463131276E+01
             -0.526249330832511E+00
              0.447582006419308E+00
              0.179136759279676E+01
              0.643224091189932E+00
             -0.704681093865815E-01
             -0.431060647410627E+00
              0.313640716756585E+01
             -0.522077478114668E+00
              0.804308604486182E+00
              0.635474835038779E+00
              0.536152264422247E+00
              0.186566172046992E+01
              0.930343475873094E+00
             -0.977871489850655E-01
              0.517675631246735E+00
              0.106724759151446E+01
              0.766159164337634E+00
             -0.123419463708403E+01
              0.190934660948571E+01
             -0.173122243705021E+01
             -0.202006816457868E+00
              0.112316466314397E+01
              0.372564360577417E+00
              0.120207333334742E+00
              0.533694577063528E+00
              0.320634455372871E+00
              0.647746598320008E+00
             -0.125858040859834E+01
              0.663479516265983E-01
             -0.473212986496913E+00
             -0.103097309372373E+00
             -0.707908863784414E-01
             -0.279295620622333E+00
             -0.130072563268534E+00
              0.167575548624479E+01
             -0.948361676676801E-01
             -0.572123004136688E+00
             -0.236459853879842E-01
              0.294902536347065E+00
             -0.130041401388467E+01
             -0.114669860689579E+01
             -0.678273577901945E+00
             -0.127959682910000E+01
             -0.389274507213204E+00
             -0.815309982587159E+00
              0.353315258248871E+00
              0.480329518208336E-01
             -0.261205303410833E+00
             -0.160807252881481E+00
              0.980475511109509E-01
             -0.250772782592998E+00
              0.132265255223486E+01
             -0.178448389373588E+01
             -0.265514495996358E+00
             -0.263229973820615E+00
              0.302089622955076E+00
              0.469301704348753E+00
             -0.104128414690344E+01
             -0.242157129126637E+00
              0.903162407760393E+00
             -0.388670798099725E+00
              0.281794849871620E+00
              0.665775015796414E+00
             -0.200929195185529E-01
              0.232155499183676E+01
             -0.198986700240470E+00
             -0.696632202635454E+00
             -0.122893811119660E-01
             -0.580598108269729E+00
              0.109728990528253E+01
             -0.997496697270777E+00
              0.298248010897487E+00
              0.976502124569645E+00
             -0.249044125886976E+00
              0.238295932876115E+01
              0.256893043793626E+01
             -0.143423150996019E+01
              0.116966687667326E+01
              0.494953423789561E+00
             -0.114025627910643E+01
              0.346011242397537E+00
              0.894019813101937E+00
              0.956509630433475E+00
              0.874133396681809E-01
              0.394356691666852E+00
              0.152213569670532E+01
             -0.470557291321433E+00
              0.186296424540464E+00
              0.133435607545857E+01
             -0.717997458834782E+00
             -0.508161352178295E+00
              0.121758833743678E+01
              0.629067984583937E+00
              0.154844072407249E+01
              0.702349686013165E+00
              0.288637462570241E+00
              0.495898830073606E+00
              0.866694799986179E+00
             -0.109164606550986E+01
              0.165778000994343E+00
              0.587719537027342E+00
              0.227109334916797E+00
              0.498492797464153E+00
             -0.126715877982880E+01
              0.646292735562712E+00
             -0.870246028486882E+00
             -0.639267345539710E+00
              0.414501087520676E+00
             -0.164710219037174E+00
              0.123710503915692E+01
             -0.259462178442973E+00
              0.594975103890780E+00
              0.612749956965791E+00
              0.155840084233364E+01
              0.105381889054446E+01
              0.103551826206599E+01
             -0.201845075949700E-01
             -0.244093551615475E+00
             -0.596927786042954E+00
              0.167474967043811E+01
              0.167142449233821E+01
              0.800465034231688E+00
             -0.581185934776067E+00
              0.100011345475751E+01
              0.153845722526791E-01
              0.321744466478824E+00
              0.141526889841129E+01
             -0.492861007607575E-01
             -0.202981097561650E+00
             -0.411296881251246E+00
             -0.126813824696054E+01
              0.195503893679593E+01
              0.105543251936566E+01
             -0.132591720012632E+01
             -0.442895537443288E+00
              0.490238804445013E+00
             -0.203118101208129E+00
              0.133032195773895E+01
              0.311059818044863E+00
              0.164995942725099E+01
              0.638257530843933E+00
             -0.449823568661378E+00
              0.353230673893827E+00
             -0.143871518907302E+00
             -0.493070761411407E+00
              0.337210230563188E+00
              0.314180076149782E+00
              0.185267306840607E+01
              0.154082565367413E+01
              0.116644707956355E+01
              0.135223958254181E+01
              0.145406048459127E+00
             -0.521204202516405E+00
              0.273451252318861E+00
             -0.666024846243120E+00
             -0.115791651334995E+01
             -0.112995614184425E+01
             -0.653600911016598E+00
             -0.218801291594570E+01
             -0.766931605759128E+00
             -0.175685848880403E+01
              0.429847756579466E+00
             -0.909001505704971E+00
              0.104645300779823E+01
             -0.201144586752169E+01
             -0.607971002895747E+00
              0.761488080547649E+00
              0.440340570539317E+00
             -0.184968101654966E+01
              0.106595423210382E+01
             -0.581081032847015E+00
              0.111761643499608E+01
             -0.528869523124612E+00
             -0.158073848740576E+01
              0.349466014128630E+00
             -0.132843433794524E+01
             -0.455499301249160E-01
             -0.416230547985783E-01
              0.824943117061920E+00
              0.255343574776202E+01
             -0.862504483034535E+00
             -0.760772922703936E+00
             -0.141361506919974E+00
             -0.144429888847959E+00
             -0.162555258941563E+01
             -0.114108619152255E+01
              0.100582589094451E+01
             -0.349708732901320E+00
              0.473995263314943E+00
             -0.991329137804729E+00
             -0.327592742629469E+00
             -0.843859291537288E+00
              0.982449877592713E+00
              0.235108553702769E+00
             -0.502281623731317E+00
             -0.375029416779317E+00
              0.276321960617285E+00
             -0.143361178970052E+00
              0.803101016099673E+00
             -0.533638578281421E+00
              0.242555443867028E+00
              0.694310362890322E+00
              0.241545820812291E+00
             -0.493315221611444E+00
              0.313638611729393E+01
              0.122228286880947E+01
              0.205420205515512E+00
              0.133232813043023E+00
             -0.122811877551515E+01
              0.683048530031725E+00
             -0.158956447337208E+01
             -0.700940086734493E+00
             -0.121582011820488E+01
             -0.376755353137433E+00
              0.121390684607196E+01
             -0.117412079002692E+01
              0.549863245584835E+00
             -0.976704301255182E-01
              0.228316003193081E-01
             -0.633435674226201E+00
             -0.845414493994309E+00
             -0.155843081341779E+00
             -0.644322017069360E+00
             -0.440104980490918E+00
             -0.811536086574779E+00
             -0.105063012800247E+00
             -0.641917864487191E+00
             -0.978914938880828E+00
              0.414500726676348E+00
             -0.231658333995552E+00
              0.493729666806373E+00
              0.164164635054091E+00
             -0.153759456787679E+01
             -0.102214685475905E+01
             -0.103584602419580E+01
              0.626941954973223E+00
             -0.140552944020234E+00
             -0.123147721748214E+01
              0.116141747292926E+01
             -0.860945842607517E+00
              0.120927949581375E+01
             -0.633737037152625E+00
             -0.983538372336295E+00
              0.490994210890223E+00
             -0.147008282245742E+01
             -0.631175653239158E+00
              0.118127704261708E+01
              0.419547739702431E+00
             -0.895386864834471E+00
              0.113200110676518E+01
             -0.328807201419179E+00
             -0.749291493016633E+00
             -0.598938351754454E+00
             -0.106326911744860E+01
              0.537423986243730E+00
             -0.177343696878953E+01
             -0.153961250724121E+01
             -0.158156381230707E+00
             -0.594434320502830E+00
             -0.123662272231866E+01
              0.155245752765344E+01
              0.280330243868860E+01
             -0.422943321067506E+00
             -0.845270574821519E-01
             -0.121355860557646E+01
              0.135109385972643E+01
              0.440026256196527E+00
             -0.428404996853475E+00
             -0.734869395585284E+00
              0.285924836826773E+00
             -0.120066373964874E+01
             -0.228034537704910E+00
             -0.173527280756951E+01
              0.686590205090338E+00
              0.223140743949289E+00
             -0.111095137714484E+00
             -0.254517594383255E+00
             -0.859001576894912E+00
             -0.276825392031599E+00
              0.277818618789018E+01
             -0.321110956883766E+00
             -0.993297719630043E+00
             -0.141571632367409E+01
              0.289068644911969E+00
             -0.783336366609276E+00
              0.208500005766331E+00
              0.674370785645566E+00
              0.108973629612956E+00
              0.732350757767044E+00
              0.376071558973935E+00
              0.119999213141206E+01
              0.494865745655928E+00
             -0.747910958091264E+00
              0.111576298336279E+01
              0.697687101234025E+00
              0.256242965593326E+00
              0.750907346957205E+00
             -0.651228103415594E+00
              0.145190113081165E+01
              0.538538107549215E+00
             -0.705251753437756E+00
             -0.111527464499197E+00
             -0.338020938311412E+00
              0.312926246134055E+00
             -0.504960550500375E+00
             -0.250333097044747E+00
             -0.254025378798543E+00
              0.165015612122420E+01
              0.117996842481372E+01
             -0.128825228216990E+01
             -0.170027130085214E+00
             -0.100875902133247E+01
             -0.261371190960910E+00
             -0.432863836822133E+00
              0.223612794209869E+00
             -0.564779376450009E-01
             -0.583191720432674E+00
              0.352481101398807E+00
             -0.191707496541005E+00
             -0.138812536206010E+00
              0.177442767283278E+01
              0.295611823023748E+00
             -0.171030752605778E+01
             -0.777029231872071E+00
              0.196331262897878E+01
              0.479808746020897E+00
             -0.174638061984766E+00
              0.222837137002646E+01
             -0.328457888060267E+00
             -0.157189795996168E+00
             -0.248997221758332E+00
              0.318500411882646E+00
              0.688702603977295E+00
              0.569802320951718E-01
              0.582686459124570E+00
             -0.227593346791683E+00
             -0.824069224829909E+00
             -0.804722895040940E+00
             -0.975311316921950E+00
              0.825846719139283E+00
              0.296411590674537E+00
              0.770039647047272E+00
              0.324088310925610E+00
              0.183719792952173E+01
              0.413513511674657E+00
             -0.157661350327276E+01
             -0.670061052544607E+00
              0.514568613048636E-01
             -0.570564483146522E+00
              0.129960051780157E+01
             -0.312932844891854E+00
              0.340348514812662E+00
              0.112529857606344E+01
             -0.164548617718475E+01
              0.299925687768529E+01
              0.399772513255219E+00
              0.496547421895256E+00
              0.774814528450790E+00
              0.617532914867436E-01
             -0.413483052349859E-01
              0.651937737475341E+00
             -0.714923127542348E+00
              0.176746365868811E+01
              0.154322345483210E+01
             -0.791157728761371E+00
              0.339565938295749E+00
              0.146658362007659E+01
             -0.433637806236642E+00
              0.427315315867799E+00
              0.661191861740229E+00
              0.837951784767645E+00
             -0.150648719911605E+01
             -0.115964677331027E+00
             -0.529431883795989E+00
             -0.117642871431896E+00
             -0.151092655212432E+00
              0.147560683027157E+00
             -0.255503560498379E+00
             -0.619467075499848E+00
              0.341138738996615E+00
              0.122486777645761E+00
              0.108161442839166E+01
             -0.945912101890162E+00
              0.938898815582167E+00
              0.103108328945245E+01
             -0.171035288269122E+00
              0.151326531120749E+01
             -0.137409703369896E+01
             -0.210257481802785E+01
             -0.173972197085211E+00
             -0.128920154361650E+00
             -0.374822636441507E-03
              0.159340374851637E+01
             -0.279364862013085E-01
              0.872269611118725E+00
              0.121067295958803E+01
              0.796817005805039E+00
             -0.135463932410588E+00
              0.120049068649426E+01
             -0.341957459040291E+00
             -0.791812920985402E+00
             -0.720248373596847E+00
              0.214291738158267E+00
              0.699856863623624E+00
             -0.537619731636338E-01
              0.681215841411477E+00
              0.600687584618687E-02
              0.113076692594310E+01
              0.324177516105154E+00
              0.167102256894610E+00
              0.118121013093599E-01
              0.595949645470734E+00
              0.831016967722241E+00
              0.304878252455395E+00
             -0.681981851500502E-01
             -0.110777286968495E+01
              0.612071568878767E+00
              0.422052563633580E+00
              0.669961747472176E+00
              0.604450235492750E+00
              0.746535781658013E+00
             -0.188229102688741E+00
              0.696061848826401E+00
             -0.612573222864970E+00
             -0.344968177904530E-01
             -0.107292448503283E+01
             -0.705296282788437E+00
              0.874054536193621E+00
             -0.179809786477489E+01
              0.489741171601818E+00
              0.285641942716184E+00
              0.176647329673700E+01
             -0.259586809872320E+00
              0.679940025641786E+00
             -0.238819818731754E+00
             -0.100813946277593E+01
             -0.134106257586557E+01
             -0.313921594298186E+00
             -0.185196451764128E+01
              0.173468493941538E+00
             -0.427576976434544E+00
              0.669921201770999E+00
              0.510932398383495E+00
             -0.586598045381669E+00
             -0.616444098018397E+00
              0.872578024526077E+00
             -0.117093461968546E+01
             -0.281261128200633E+00
             -0.332283796974589E+00
              0.546769411055088E+00
              0.102774318008889E+00
              0.786297242717873E-01
             -0.303460495757971E+00
              0.109643708224445E+01
             -0.122583550445236E+01
              0.131372102282477E+00
              0.122567482577334E+01
             -0.743853268116863E+00
              0.799098741402089E-01
              0.291974905065864E-01
             -0.131761002649881E+01
             -0.771465429568673E+00
             -0.350516954563068E-01
              0.635864043761002E+00
              0.709394995782466E+00
              0.983799232257594E-01
             -0.244946620627854E+00
              0.336597093442336E+00
             -0.817864537174154E+00
             -0.944394327248244E-01
             -0.107456592436534E+01
             -0.549509674222110E+00
              0.102539827805631E+01
             -0.623121395049492E+00
              0.142858018088655E+01
             -0.482147530509216E+00
              0.670891981823264E+00
              0.519210577791680E+00
             -0.122352073729651E+01
             -0.510662543634776E+00
              0.203993903974646E+00
             -0.860202060478514E+00
             -0.836122266287554E+00
             -0.182281292395851E+01
             -0.112292574759558E+01
             -0.100609601787730E+01
             -0.919234372816236E+00
              0.464572924453677E-03
              0.497790366731195E+00
              0.238441482207743E+00
              0.562021462764182E+00
             -0.119423297394842E+01
              0.270104192132331E+00
              0.594190808856314E+00
             -0.139822629739039E+01
             -0.116896944033878E+01
             -0.807346310678614E+00
             -0.667405551958985E+00
              0.287671630235226E+00
             -0.567615436811391E-01
             -0.844236897632968E+00
              0.569240023534627E+00
             -0.475744725548050E+00
              0.106725654236641E+01
             -0.179723320843068E+01
              0.131264903704274E+01
             -0.240679736175689E+00
             -0.893279640852991E+00
             -0.555494853428336E+00
             -0.192377954038392E-01
              0.990846260955231E+00
             -0.142126033465835E+01
             -0.256709885880760E+00
             -0.343290773991891E+00
              0.838819316868372E+00
              0.164086239905065E+01
             -0.205119351596159E+01
              0.186984634810600E+01
              0.782800647937318E+00
             -0.154961609501509E+01
             -0.634683859946789E+00
              0.160959259613412E+01
              0.116682195844130E+01
             -0.426034724140042E+00
             -0.144803524701108E+00
              0.367333795267216E+00
              0.158204900734743E+01
             -0.121098471677257E+01
              0.258302315260139E+00
             -0.156554186740991E+00
              0.538289866662387E+00
             -0.143573136068398E+01
             -0.471558835713670E-01
             -0.543831075360010E+00
              0.984762791980119E+00
              0.786806145230844E+00
             -0.182565594223612E+01
             -0.963633711706085E+00
             -0.423326308701553E+00
             -0.893941199483212E+00
             -0.249981667773472E+00
             -0.357502001050876E+00
              0.930695898281363E+00
              0.875997725337229E+00
             -0.265406716884300E-01
             -0.899426753153228E+00
             -0.176589857424126E+01
              0.103788864780836E+01
             -0.939148650727030E+00
             -0.764790879547661E+00
              0.152619001836464E+00
             -0.760916215451918E+00
             -0.823877293309471E+00
             -0.633071362287333E+00
             -0.104255024359923E+01
             -0.484535978995267E+00
             -0.100596347349596E+01
              0.111835607581938E+01
              0.119304183790511E+01
             -0.222767055001055E+00
             -0.423999322578597E+00
              0.604942444594094E-01
              0.860510948162467E+00
             -0.172343593494358E+01
             -0.469022832690878E+00
              0.101415145805469E+01
              0.146954874301008E+01
             -0.211101589906945E+00
              0.201995787645972E+00
              0.107299080387721E+01
              0.314348768121705E+00
              0.359819292667849E-01
             -0.799408815085249E+00
              0.301394468774845E+00
             -0.658967408041653E+00
             -0.150664175700428E+00
             -0.430729640810791E+00
             -0.290840829582089E+00
              0.498433496949286E+00
              0.161532878900942E+01
             -0.145437809738783E+00
              0.400205540720266E-01
             -0.186248297888989E+01
             -0.363499214233331E+00
             -0.722354240505140E+00
             -0.262208346672939E-01
             -0.971817941857739E+00
              0.183546377057416E+01
              0.176642263261805E+01
              0.376379959593090E+00
             -0.475890491854257E+00
              0.375494806720959E+00
              0.413409284587040E+00
             -0.946200493995637E+00
             -0.197344482912964E+00
              0.404312602787106E+00
              0.249812933790937E+00
              0.103915186905401E+01
              0.793592604851098E+00
             -0.419732992464616E+00
              0.437342919954681E+00
             -0.198757131979182E+01
             -0.288167174190221E-01
              0.183284434472505E+01
              0.375179653229518E+00
             -0.554410534148371E-01
              0.548804155749306E+00
             -0.492043040675418E+00
              0.177873007776195E+01
             -0.412764053074356E+00
              0.158395932032242E+01
              0.782496380216057E+00
             -0.909335224277610E+00
              0.680022291541706E+00
             -0.578583160970505E+00
             -0.139132372398070E+01
             -0.160595332121900E+00
             -0.109950071759999E+01
             -0.106721287631614E+01
             -0.349566817471607E-01
              0.764702117101079E+00
             -0.284462558378378E+00
             -0.625370592639486E+00
              0.154551397605664E+00
             -0.134312867193235E+01
             -0.701676296530895E-01
             -0.178102208340518E+01
              0.105696663351487E+01
             -0.740187272283497E-01
             -0.996472943619382E+00
             -0.319755050482556E+00
              0.363654930834437E+00
             -0.774386005140697E+00
             -0.899018441637427E+00
              0.186523379423107E+01
             -0.563754602678094E+00
             -0.766228439825525E+00
              0.652819843474815E+00
             -0.443711373559605E+00
              0.116804494684675E+01
             -0.519044877771719E-01
              0.616709866935885E-01
              0.224059583762739E+01
             -0.178465356053632E+00
             -0.781418740726108E+00
             -0.958357267111047E+00
             -0.104615883307728E+01
             -0.760992467590549E+00
              0.587286052099309E+00
              0.631027265909083E+00
              0.565623533761992E+00
              0.151767266646826E+01
              0.112556526006453E+00
              0.467822089342915E+00
             -0.118554623496992E+01
              0.406989954683512E-01
             -0.322919674138116E+00
             -0.570616688073651E+00
             -0.135201257111396E+00
              0.668614868272914E+00
              0.778683320145666E+00
             -0.472961325900035E-01
              0.270310460862442E+00
              0.558342882577697E+00
              0.700774718724326E+00
             -0.485713252628797E+00
             -0.201078465739165E+00
              0.695326291705811E-02
             -0.529953799855646E+00
             -0.654654485045416E-01
             -0.807076949840109E+00
              0.161671325441641E+01
              0.126494647153789E+01
             -0.381110599915303E+00
              0.341623742748285E+00
             -0.118587337864238E+00
             -0.642808842410583E+00
              0.755829718120459E+00
             -0.191893145672521E+00
              0.754767213893617E+00
             -0.982867255969292E+00
              0.370769455619103E+00
             -0.168905241738885E+00
             -0.110011400701381E+01
             -0.505303755076028E+00
              0.500853378699541E+00
             -0.199130372239568E+01
              0.789639953644869E+00
              0.951811330469784E+00
             -0.205857167193054E+00
             -0.154598630368458E+00
             -0.841060519540298E-01
              0.539182505321326E+00
             -0.698932641528017E+00
              0.642961233752283E+00
              0.649394324075302E+00
             -0.186261712670461E+01
             -0.746671120013526E+00
              0.495548129701484E+00
             -0.243290973845570E+00
              0.994267252043843E+00
             -0.126194376415519E+01
             -0.210125935335466E+00
             -0.815314506987943E+00
             -0.266112414727438E+01
              0.161071816458441E+01
             -0.121304704550479E+01
             -0.136547195461301E+01
              0.136324237124749E+00
              0.263238589416062E+01
              0.135693613571161E+00
             -0.658725348345764E+00
             -0.279411013990565E-01
             -0.768128031154374E-01
             -0.174380168476418E+01
             -0.112971692052941E+01
              0.174681221948120E+01
             -0.245227529079155E+00
             -0.740270989388855E+00
              0.998393065106153E+00
             -0.669882804608028E+00
              0.683062891402306E+00
              0.999756716760176E+00
             -0.108563729296781E+01
             -0.566062787107290E+00
             -0.655521810238954E+00
             -0.355674174330348E+00
             -0.394544241531059E+00
             -0.368499909584870E+00
              0.401413631332971E+00
             -0.723569792504721E+00
              0.568917488254615E+00
              0.112792343410153E+01
             -0.137151177070075E+00
             -0.425743647663296E+00
              0.311207302727039E+00
              0.111746443654750E+01
              0.111915766414988E+01
              0.214829376207254E+00
             -0.207929944564372E+00
             -0.223624968998122E+00
             -0.108105498503362E+01
              0.826067355366762E+00
             -0.498040561824007E+00
              0.457937746543164E+00
             -0.277697523307406E+00
              0.534049078825284E+00
              0.349206594243259E+00
             -0.166136819137763E+01
             -0.524415272726502E+00
             -0.160501750021412E+01
             -0.805970451880619E+00
              0.817711579185723E-01
             -0.399125459777483E+00
              0.718736277358550E+00
             -0.587473570899371E+00
              0.767052020281485E-01
              0.150699198916312E+00
              0.143358300341098E+01
              0.742979192694965E+00
             -0.657695497964030E+00
             -0.465396121595192E-01
              0.305880159127821E+00
              0.759303444837611E+00
             -0.129177753354011E-01
              0.115430817253610E+01
              0.549472115984413E+00
              0.183451936763972E+01
              0.702745068017756E-01
              0.127641070780979E+01
             -0.565813427942117E+00
             -0.799124898856542E+00
              0.509763197084698E-01
              0.211439430539791E+00
              0.464860114802303E+00
             -0.410788308304307E+00
             -0.228438450296440E+00
              0.481514571561374E+00
             -0.969019481371717E+00
             -0.121807318517727E+01
              0.162081271654191E+01
             -0.132399613090220E+00
             -0.753464704598833E+00
             -0.102708053316377E+00
             -0.284809117428578E+00
              0.895463698001533E+00
              0.733067198987090E+00
             -0.423590210416458E+00
              0.591501299335384E-02
             -0.526683807848936E+00
             -0.727333691375367E+00
             -0.487166692724944E+00
             -0.199276789803444E+01
              0.250638714724092E-01
             -0.131609563653888E+01
             -0.120104519927440E+01
             -0.768308900634700E+00
              0.449293926807321E+00
             -0.784989326785989E+00
              0.484648211912099E+00
             -0.132111139624204E+01
             -0.574059358219969E-03
             -0.858118781563866E+00
              0.168571766216709E+00
              0.164545845365154E+00
              0.721726912229406E+00
             -0.426767350674034E+00
             -0.374460129396958E+00
              0.651958182927316E+00
              0.121579599540162E+01
              0.659978754338793E+00
              0.219523523728274E+00
             -0.152075261733565E+01
             -0.325411104497134E+00
             -0.580017142213480E+00
             -0.125358234940813E+01
              0.883944400033037E+00
             -0.707764651036412E+00
             -0.147023970531491E+00
             -0.566111666783326E+00
             -0.202256295305995E+01
              0.113455318892524E+01
             -0.373836388640441E+00
              0.796342003903945E+00
             -0.151136038203237E+01
              0.134370707603874E+01
              0.122911637316617E+00
             -0.529389999359662E+00
              0.209608837956513E+00
             -0.410970864589384E+00
             -0.128799107016056E+01
              0.347893267388161E+00
              0.797940690279068E+00
             -0.231981532973879E-01
             -0.703427202610666E+00
             -0.327026004754790E+00
              0.416716023557338E+00
              0.745084562195775E+00
              0.126106916581050E+01
              0.466974539005490E+00
             -0.466450568821922E+00
              0.203745627507943E+01
              0.438009025638265E+00
              0.962468163840784E+00
             -0.348876842034235E+00
              0.597262660129751E+00
              0.478832511307869E+00
             -0.126524461157661E+01
             -0.453075887977934E+00
             -0.827520826442482E+00
             -0.842404846496804E+00
             -0.247976130959673E+00
             -0.180842261685529E+00
             -0.940438993882719E+00
             -0.226364895826662E+01
             -0.552151636030385E+00
              0.277335440983924E+00
              0.121649649316295E+00
              0.317590160984925E+00
              0.832545195754504E+00
              0.215244738299369E+00
              0.643858533381904E+00
             -0.877865264321988E+00
              0.888118570057687E+00
             -0.809054076731798E+00
             -0.138143203356334E+01
              0.408210464889514E+00
             -0.860676566469574E+00
             -0.810791379912567E+00
             -0.325330968181199E+01
             -0.156373481103761E+00
              0.172033792805938E+01
              0.837645097660190E+00
             -0.213318153870979E+00
             -0.214725484400637E+00
              0.897656919277137E+00
              0.130559395727261E+01
             -0.808449716563840E+00
             -0.254320247268412E+00
             -0.736968289785418E+00
             -0.688097130434411E+00
             -0.600893573269259E+00
              0.219528171059556E+00
              0.142092678041287E+01
             -0.132682227828741E+01
             -0.111110377405401E+01
              0.736492882143231E-01
             -0.289936877690423E+00
             -0.345892864960148E+00
             -0.182426877463985E+01
              0.128136092912496E+01
              0.413535279715969E+00
              0.189625813238950E+00
              0.105611573899971E+01
             -0.671577955582266E+00
              0.678921562011184E+00
              0.584918680344590E+00
              0.287553097147688E-01
             -0.163319900638933E+00
              0.172750854925929E+00
             -0.315681213762963E+00
              0.107033289897886E+01
             -0.807985389599074E+00
              0.943943923596951E+00
              0.183050498296796E+00
              0.344644200717699E+00
              0.416170042315066E+00
             -0.166822245707834E+01
              0.210913960157103E+00
             -0.136172249580788E+01
             -0.981617485080726E+00
             -0.971686959438535E+00
             -0.106934320374180E+01
              0.447440446092529E-02
              0.383525956227583E+00
              0.101700219392171E+01
              0.150667068279581E+00
              0.305097830936145E+00
             -0.141806551057438E+01
             -0.562884807199366E+00
              0.663927092285496E+00
             -0.709376409448410E-01
             -0.639512351246982E-01
             -0.194469177455368E+00
              0.725457137669633E+00
             -0.185342554751878E+01
              0.265133180026408E+00
              0.419629314635356E+00
              0.800531526317106E+00
              0.748529219646651E+00
             -0.115504460338288E+01
              0.319038090921678E+00
              0.134079416962575E+00
              0.135344215637858E+00
              0.119336374769686E+00
             -0.403035130608877E+00
             -0.868518319449160E+00
              0.363938930509326E+00
              0.119341088699862E+01
             -0.339920167382814E-01
              0.274136532662006E+00
              0.262155940449623E+00
             -0.622555801358185E+00
             -0.662836999692166E+00
             -0.249691000791537E+01
             -0.770163680265837E+00
             -0.119182355954220E+01
             -0.129546349449841E+00
             -0.139085337050056E+01
              0.154378165694829E+01
             -0.687909777123508E+00
             -0.112595891473185E+01
             -0.320373572684798E+01
              0.136652300453579E+01
              0.301779252499985E+00
              0.203566053794544E+00
             -0.124987661203199E+01
              0.924783007393621E-01
             -0.350884548948585E+00
             -0.641098769859964E+00
              0.174590839421723E+00
              0.668067003133807E+00
              0.101479616918079E+00
             -0.419294798115102E+00
              0.722785046624033E-01
              0.311922363850368E-01
              0.229719109611874E+00
             -0.135905916930172E+01
              0.150100370319452E+01
             -0.848940866292453E+00
             -0.544902683377739E+00
             -0.104463086833429E+01
             -0.222933002673520E+01
              0.980236956133618E-01
             -0.116800096484032E+01
             -0.376141934871210E+00
              0.634467151634604E+00
             -0.545503063161826E+00
             -0.221347356780315E+00
             -0.262905391513008E+00
             -0.404551677621448E+00
              0.690220432312865E-01
              0.105770561795039E+01
             -0.102515223222901E+01
              0.210923242546747E+01
             -0.515836096120177E+00
              0.665207832280279E+00
             -0.357634089915365E+00
              0.240191123374650E+00
             -0.244870891007080E+00
              0.907589222287426E+00
              0.127047871955428E+01
              0.369165528546945E+00
              0.894638180240255E+00
             -0.608577582147925E+00
             -0.152939218182796E+00
             -0.477442670266994E+00
              0.131197136729563E+01
              0.112787004287868E+01
              0.823556378186669E+00
             -0.257451879131708E+00
             -0.523474451213517E+00
              0.493874179590253E+00
             -0.601049586760742E+00
             -0.299733615783868E+00
             -0.118903881915648E+00
             -0.712543416732561E+00
              0.998925296047926E+00
             -0.220953137377412E+00
              0.735540780671560E+00
              0.450678264097258E+00
              0.311353827711450E+00
             -0.687734635444909E+00
              0.510533955632315E+00
             -0.288950135655651E+00
             -0.153781543444672E+00
             -0.213974353344710E-01
             -0.983310742220352E+00
              0.158154782806597E+01
             -0.539855199079346E+00
             -0.490014427307450E-02
              0.496728781830629E+00
              0.431832634847152E+00
              0.157739827115960E+01
             -0.429593934779612E+00
              0.152981018196425E+01
              0.135767801583800E+01
             -0.189866768855017E+01
              0.140150605418658E+00
             -0.378303891395171E+00
              0.254318163146126E+00
              0.101110715977242E+00
              0.430380461572346E+00
              0.130333847310955E+01
              0.203070051448171E+01
             -0.149473511017364E+01
              0.155341812164756E+01
             -0.204710178639894E+01
             -0.175672981435173E+01
             -0.299235944617886E+00
              0.156096649881388E-01
              0.159495743156691E+01
              0.671949773980021E+00
             -0.272082428170339E+00
             -0.170123268735768E+01
              0.136797377588550E+01
             -0.838597310511295E+00
              0.277385418082616E-01
             -0.114863604863261E+00
              0.263718474694405E+01
             -0.457581013958351E+00
             -0.215002842287057E+01
              0.613310959516053E+00
             -0.330313541545112E+01
              0.261310840928153E+00
             -0.779406473921983E+00
             -0.363883784694666E+00
             -0.529307609356892E+00
             -0.121280670602098E+01
              0.748152124838483E+00
             -0.746522194463256E+00
             -0.273995121476727E+00
             -0.154523955392598E+01
             -0.822332726713828E-01
             -0.109671548683323E+01
             -0.158029360584574E+01
             -0.217537454509310E+01
              0.172456597234852E+00
             -0.756797557232220E+00
              0.201259444012075E+00
             -0.287768783077055E+00
             -0.169959655220878E+01
             -0.131248020510213E+01
             -0.116301449179684E+01
             -0.119720724058750E+01
              0.106818481016961E+01
              0.111380641522374E+00
             -0.101093418599716E+01
             -0.508309086470385E+00
             -0.564862547663927E+00
              0.853168144700969E+00
             -0.615217587546586E+00
             -0.974483586064283E-01
             -0.645765373803615E+00
             -0.797769144416010E+00
             -0.849328028514512E+00
              0.820538905219536E+00
             -0.266962566345179E+00
             -0.188501092785788E+01
              0.157946743107789E+01
              0.922238866262921E+00
              0.618312489909858E-01
             -0.166184820682873E+01
             -0.151272986114501E+01
              0.105394765975150E+00
              0.162291138592590E-01
             -0.683333912486546E+00
             -0.887220528540347E+00
              0.616952850019404E+00
             -0.987285358772398E-01
              0.553263487490966E+00
              0.981578715271205E+00
              0.709684896494011E+00
              0.513048066965975E+00
              0.445179948164626E+00
             -0.456077559298204E+00
             -0.312561410118753E+00
             -0.388320824165892E+00
             -0.778131616332551E+00
             -0.947259540811983E+00
             -0.123362152444569E+01
             -0.733366941018536E+00
             -0.254720982446148E+00
             -0.152512419681468E+01
             -0.341911832130513E+00
              0.739279439352877E+00
             -0.171516065199492E+01
              0.744753014316827E+00
              0.603479732381420E+00
             -0.147793164329578E+01
             -0.113484158265371E+01
             -0.462807831166297E+00
              0.256797856061358E+00
             -0.848134814302737E+00
              0.153648410324542E+01
              0.135318519174574E+01
             -0.157963913610938E+01
              0.850171742685474E+00
              0.739354911010084E+00
              0.211411555882330E+00
              0.390184459073713E+00
             -0.872602900806154E+00
             -0.313431905729089E+00
              0.134646479717480E+00
              0.418626680097883E+00
              0.842478645053808E+00
             -0.109684907357250E+01
             -0.223543189881449E+00
              0.329334149370191E+00
              0.209817058357014E+00
             -0.692018530639379E+00
              0.385392076228615E+00
             -0.509254989931240E+00
             -0.370974686083558E+00
             -0.142140752705098E-01
             -0.126092945402604E+01
             -0.660860755025383E-02
             -0.194353432978030E+00
             -0.306401063101496E+00
              0.309525087183552E+00
             -0.107919352444567E+01
              0.119840907915178E+01
             -0.447629334750625E+00
             -0.273570902599236E+01
             -0.175606079473466E+01
              0.713259516262059E+00
             -0.852254092437994E+00
             -0.430912491038931E+00
             -0.476940190086015E+00
             -0.396727457515320E+00
             -0.211124004412632E+01
             -0.299324959085769E-01
             -0.126591944150498E+01
             -0.698348798848514E+00
              0.400527058956008E+00
              0.162477442058092E+01
              0.961695967356582E-01
              0.484110126383008E-01
              0.122429950129493E+01
             -0.118832386181630E+01
              0.580690879359676E+00
              0.121067016521041E+00
             -0.107703889219734E+01
             -0.620400592355103E+00
              0.396918141031785E+00
              0.612123470065056E-01
              0.344322020332620E+00
              0.272522170578276E+00
             -0.473220618534802E+00
             -0.687255590095496E+00
             -0.102995037985713E+01
              0.101554320966468E+01
             -0.138405425482421E+01
             -0.103073404226897E+01
              0.291235776125334E+00
             -0.171681464736218E+01
              0.482626480517284E+00
              0.122899936572087E+01
             -0.233097556791858E+00
              0.397125790187137E+00
             -0.687440991385458E+00
             -0.453274303999049E+00
              0.212148344921044E+00
              0.739334683235081E+00
             -0.749250672522408E+00
              0.469631326356614E+00
             -0.291273835399403E+00
              0.141905541583927E+00
              0.387974484404082E+00
              0.199286101673537E+00
             -0.260466178389593E+00
             -0.211195464642424E-01
              0.242858012141564E+00
              0.579234063338114E+00
             -0.145044255306720E+01
             -0.186964567869730E-01
              0.107360022907096E+01
             -0.180694565359128E+01
              0.670732421190454E+00
             -0.232636405123636E+01
             -0.232824820042172E+00
             -0.290833831999367E+00
             -0.696413059569707E-01
             -0.264520602275744E+00
             -0.557947882569032E+00
             -0.215061970333078E+00
              0.242119984122431E+00
             -0.529603783148078E+00
              0.221752734671903E+00
              0.185317641546008E+01
             -0.116928649558176E+01
             -0.512415440454500E+00
              0.856756865563954E+00
              0.435711951578896E+00
              0.872885126397123E+00
              0.414777044994849E+00
              0.342293702567898E+00
             -0.297141100454597E+00
             -0.100278200937641E+01
             -0.920418712833557E+00
             -0.698638590464573E+00
              0.112942944876741E+00
             -0.868546646674938E+00
             -0.244909615230173E+00
              0.126148218493047E+00
              0.495905228603810E+00
             -0.139889811272609E+00
              0.120946009919948E+01
             -0.132895635344529E+01
             -0.297645301443836E-01
             -0.145134510316531E+00
              0.635615223812215E+00
             -0.864229669647128E+00
             -0.563499585314602E+00
              0.271569378655383E+00
              0.923672077458010E+00
              0.154260321888100E+01
              0.616921899750499E+00
              0.935824009863728E+00
             -0.507356636189733E+00
              0.129861685956397E+01
              0.128959589508920E+01
             -0.254120883924571E-01
              0.625375679152540E+00
              0.765789100692791E+00
             -0.421784185076107E+00
              0.288117666497885E+00
              0.133766410038745E+01
             -0.439368791084977E+00
             -0.133648309245956E+00
             -0.126766040590708E+01
              0.453048460232159E+00
             -0.311313204805411E+00
              0.435483690160291E+00
              0.334600455278640E-01
             -0.799198041296735E+00
              0.930700681754937E+00
              0.802152346651402E+00
             -0.640408616241669E+00
              0.350121536259164E+00
             -0.122809500409099E+01
             -0.111160662013625E+01
              0.504017922214972E+00
             -0.138879160570464E+01
             -0.700092559140740E+00
              0.193918128458019E-01
              0.175119940854277E+01
             -0.462332973477209E+00
             -0.231841567959931E+00
             -0.412005344882883E+00
              0.228781420844120E+01
              0.366185363685216E+00
             -0.868839981196073E+00
              0.144929680213399E+01
              0.127279351732625E+01
              0.664243942511602E+00
              0.162284439691879E+01
              0.178193763007597E+01
             -0.735851927790043E-01
             -0.585945368096475E+00
             -0.515090366780763E+00
              0.567680167835693E+00
              0.797793196862686E+00
             -0.148369409354663E+00
             -0.490902072354526E+00
             -0.117573605234137E+01
             -0.421413295267461E+00
             -0.950171084491860E+00
              0.685937020949280E+00
              0.364781490311040E+00
              0.123315790650906E+01
              0.272898327824533E+00
             -0.471724338171414E+00
             -0.176446459782372E+00
              0.810712348814228E+00
              0.217268633053958E+00
              0.124951118998857E+01
              0.113363650798948E+01
             -0.175137631291652E+00
             -0.187432418439903E+00
             -0.207663275664539E+01
              0.100825085819701E+01
             -0.925491412728796E-02
              0.118109343473366E+01
             -0.519316773978554E+00
             -0.134284473997520E+01
              0.391714911905826E+00
              0.148147212201314E+01
             -0.513577376255827E+00
              0.134736457950295E+01
             -0.146593687803814E+01
             -0.528588283426868E+00
             -0.175026843188657E+01
              0.328276936714506E+00
              0.101628554548964E+00
              0.167684099569670E+00
             -0.127001009491249E+01
              0.190064165437820E+01
              0.110151753420678E+01
              0.128698026628012E+00
             -0.111210427540109E+01
              0.420233671188533E+00
             -0.379997106495094E+00
             -0.302797481402671E+00
             -0.555327674593133E+00
              0.341143491237028E+00
             -0.350259888733889E+00
             -0.372018597872089E+00
              0.477095705103102E+00
              0.477976847457150E+00
             -0.182479349795500E+01
              0.407518822566391E+00
              0.134994921945532E+01
              0.863721174282548E+00
             -0.263891894336893E+00
             -0.391686556459827E-01
             -0.747606174020133E+00
              0.113301572515392E+01
              0.188149041292613E+00
             -0.639473570377866E-01
             -0.129177914610615E+00
              0.220669060002091E+01
             -0.143066843286392E+00
              0.447355684274816E+00
              0.152350055669218E+01
              0.195765774820192E+01
              0.121384298183757E+01
              0.797950055485342E+00
             -0.131026004880967E+01
             -0.945383157450862E+00
              0.736898737385421E+00
              0.108095881902948E+00
              0.626362182237850E+00
              0.263063771506218E+00
              0.132503415837395E+01
             -0.161848309850367E+01
             -0.994447365151971E+00
             -0.233685591748506E+00
             -0.177233396027557E+01
              0.393595686232879E+00
              0.939295460043554E+00
              0.242537802267826E-01
             -0.420503660956392E+00
              0.429015466960972E+00
              0.275419034534285E+01
              0.645353634856271E+00
              0.352609907141764E+00
             -0.958455448184230E+00
             -0.118243998060543E+01
             -0.277039094531853E+00
              0.587590039951449E+00
             -0.116192605703604E+00
              0.536976094395943E+00
              0.726709153644803E+00
             -0.123674984417349E+01
              0.544720608015146E+00
              0.696031073261326E+00
              0.113874800654972E+01
             -0.203136828837143E+00
              0.110141996090286E+00
             -0.144944737019674E+00
             -0.904686735647669E+00
             -0.149144723725047E+01
              0.153964104506128E+01
             -0.202960324498089E+00
             -0.107560107736095E+01
              0.173076934776611E+00
             -0.615218729422944E+00
              0.174451000049490E+01
             -0.470459909306552E+00
             -0.774945673933754E+00
              0.761649775745697E+00
             -0.318824784342806E+00
              0.939984638525169E+00
              0.582937038130931E-01
              0.188168039228577E+01
              0.107565810124645E+01
              0.250489997915249E+00
             -0.801495319282913E+00
              0.577300598308636E+00
             -0.109964447123306E+01
             -0.974025326730659E-01
              0.130876014701924E+01
             -0.519467526051343E+00
             -0.881289718381939E+00
             -0.473436663507741E+00
              0.104821114945392E+01
              0.232735016212070E+00
             -0.165043740383689E+01
              0.690462551715766E+00
              0.124244404741422E+00
              0.223732943357139E+00
             -0.996649337112803E+00
              0.191149394390131E+00
              0.698004512935494E+00
              0.926004535199882E+00
              0.133814624528236E+01
              0.709837649526027E+00
              0.148340949725438E+00
             -0.113117726736450E+01
             -0.863149023625253E+00
             -0.130933545886653E+01
             -0.296641191966620E+00
              0.697906433614310E+00
              0.134609752071957E-02
              0.106413685099029E+01
             -0.652315688066452E+00
              0.351278655270871E+00
             -0.472099186843460E+00
             -0.548478637182278E+00
              0.119817435432976E+01
              0.111447348775991E+00
              0.127444351116463E+01
              0.105212496636314E+00
              0.398576257236858E+00
             -0.331542015931580E+00
              0.121602993247830E+01
             -0.338510387518609E+00
              0.445214435685229E-02
             -0.159196625630291E+01
             -0.145128391377468E+00
              0.141231614070878E+01
              0.129985341992165E+01
              0.520095092209149E+00
             -0.318789175164696E+00
              0.117140762936833E+00
             -0.486725535658817E+00
             -0.398150332034414E+00
              0.183484714117781E+01
              0.162037441733352E+00
             -0.586255629261645E+00
             -0.215960801241713E+01
             -0.862423043518685E+00
             -0.773583941902102E+00
             -0.123242872718440E+01
             -0.121285889564062E+01
             -0.142813383492328E+01
             -0.914285754509757E+00
             -0.572136171976817E+00
             -0.976184701168046E+00
              0.899432928735545E+00
             -0.357787601376938E+00
             -0.169697129509786E+01
              0.839507509089905E+00
             -0.684184140369989E+00
             -0.161154096015200E+01
              0.204125078907436E+01
             -0.520553887895838E+00
              0.307166882039775E+00
              0.765167964435570E+00
              0.277137458995467E+00
              0.542040635747135E+00
              0.249437179419179E-01
              0.282328410561316E-01
             -0.271192994313936E+00
             -0.149897723273100E+01
              0.219139714349061E+00
             -0.243792185655820E+01
              0.148052194395774E+01
             -0.823254295324800E+00
             -0.390974274651150E+00
             -0.428250034857117E+00
              0.446229870620281E+00
             -0.328596383087025E+00
              0.566438096191237E+00
             -0.118938929321676E+01
              0.728244102895912E+00
              0.874532200597032E+00
              0.173750641383736E+00
              0.193502210677968E+00
              0.436197051125153E+00
              0.204335859819986E+00
              0.598881933863948E+00
             -0.795000036817264E-01
             -0.152374633544314E+01
              0.190968463446181E+00
             -0.689714507137491E+00
             -0.582407906519595E-01
              0.114837691529191E+01
             -0.162113764921988E+01
              0.458121823522273E-01
              0.751618374615788E-01
              0.196954309751015E+00
              0.617603246026350E+00
             -0.256828699234700E+00
              0.171648247486684E+01
              0.735148136938861E+00
             -0.287558393480543E+00
             -0.166561636759131E+00
              0.126422294881444E+00
              0.159298858258497E+01
             -0.100506025850311E+01
             -0.205495877394122E+01
              0.598164634284381E+00
             -0.178926380530466E+00
             -0.321530283360262E+00
              0.391637197056136E+00
              0.152784350430173E+01
              0.842121552078130E+00
             -0.344427684299233E+00
             -0.110754459486518E+01
             -0.261103662542945E+00
              0.558568042759887E+00
             -0.362425022174653E+00
             -0.155697712655975E+01
             -0.197870468945200E+00
             -0.199500553530858E+01
             -0.105565094945487E+01
              0.178218577452438E+01
             -0.106804900083387E+01
             -0.145200055163216E+01
             -0.107704088713555E+01
             -0.818304746281864E+00
              0.700036991360755E+00
              0.173567815626373E+01
             -0.207810756483720E+00
              0.543732543228610E+00
             -0.420320114663973E+00
             -0.139312964642707E+01
              0.105261610636054E+01
             -0.989441100239222E+00
              0.502741410983677E+00
              0.574466052312372E+00
             -0.317369155818449E+00
              0.737241692836291E+00
              0.778911402917125E+00
              0.246924162771029E+01
             -0.201029745701039E+00
             -0.116975854531957E+01
             -0.135545680693439E+01
             -0.396789812029239E+00
             -0.853124586934734E+00
              0.189083152897986E+01
             -0.923301746617205E+00
              0.209028285055605E+00
              0.465285653343024E-01
             -0.396120206943818E+00
             -0.175921446644354E+01
             -0.133632357651671E+00
              0.205090848422181E+01
              0.450957927128744E+00
              0.148273837318024E+00
             -0.121550529973099E+01
             -0.111808169826893E+01
             -0.371097120538505E+00
              0.930999098483685E+00
             -0.543391244653937E+00
              0.205694698362135E+01
             -0.980101736550274E+00
              0.390549038281072E+00
             -0.265687602313021E+00
             -0.126772690615728E+01
              0.139568299865226E+00
             -0.115552617203949E+01
             -0.151291730666403E+01
              0.229812316072316E+00
              0.316992036290955E-01
              0.100471403798262E+01
              0.548331295969656E+00
             -0.720004393870996E+00
              0.438996683918754E+00
             -0.181819293642527E+01
             -0.962984296048843E+00
              0.189638515233122E+01
              0.657248169460694E-01
             -0.110452197186129E+00
             -0.502981508074617E+00
             -0.101211529646204E-01
             -0.253198790634498E+00
              0.188177915409130E+01
              0.844276053247641E+00
             -0.171726166792244E+00
              0.646606711796771E-02
             -0.773102219712178E+00
             -0.245621007210307E+00
             -0.126301662342400E+01
              0.105516042405941E+01
              0.135800510451437E+00
              0.158573740146725E+00
              0.393053668540894E+00
             -0.283232856257693E+00
             -0.466299195429305E+00
              0.192209265120859E+00
             -0.228004905209415E+01
             -0.218992482167477E+00
             -0.202829638656849E+00
             -0.125915684929691E+00
              0.983880450375626E+00
              0.132650536801384E+01
              0.371165083540635E+00
             -0.190549465605789E+01
              0.130693481167748E+01
             -0.490451877447961E+00
             -0.756902337903635E+00
             -0.178210928149681E+01
             -0.550188266041531E+00
              0.129959909906045E+01
              0.682376958168554E+00
              0.325292386636228E+00
              0.715757864357188E+00
             -0.114267305368605E+01
             -0.100067733534520E+01
              0.127763388206381E+01
              0.848379284200259E+00
              0.958518744885589E+00
              0.192017331852180E+00
              0.217431959202393E+00
              0.108463310357088E+01
              0.200927904780310E+01
             -0.366268265851536E+00
              0.821131999103077E+00
             -0.610440973138488E+00
             -0.889182135134187E+00
             -0.709799671313034E+00
             -0.693014625080528E+00
             -0.288820131793256E+00
             -0.974492355062704E+00
             -0.383005012000331E+00
             -0.264218911256869E+01
              0.644229368568658E+00
              0.584132362494823E+00
             -0.709544400070561E-01
             -0.750075786231854E+00
             -0.364249048986692E+00
             -0.115974339801659E+01
              0.116536974395956E+00
              0.161765806930550E+01
             -0.390412630013882E+00
             -0.388889666574088E+00
              0.396757605095537E+00
             -0.104338783242152E+01
              0.174802052501985E+01
              0.310990858387012E+00
              0.131416158874002E+00
              0.105967497542180E+01
             -0.127908565961367E+00
              0.120446955800858E+01
              0.414015809170073E+00
             -0.347293095765573E-01
              0.277549350920516E+00
             -0.204201060099175E+00
              0.137140235133275E+01
              0.144796247063964E+00
              0.436825707394838E+00
             -0.189010028964468E+00
              0.214811110225293E+00
             -0.191966560834384E+01
             -0.707985687458422E+00
             -0.102031785011209E+01
              0.101569986697116E+01
             -0.729245500712389E+00
             -0.113200966969863E+01
              0.121606472640462E+01
             -0.276999971766562E+00
              0.846260494335246E+00
             -0.181112999546654E+01
              0.355143163902970E+00
              0.773177641243390E-01
              0.148206944083677E+00
             -0.283069342100988E+00
             -0.134161707791836E+00
              0.101816656125477E+01
              0.515026771205367E-01
             -0.108986966285213E+01
             -0.448800427420161E+00
              0.372780693217133E+00
             -0.235665213298047E+01
             -0.177314266836156E+01
              0.177638684956571E-01
              0.338301070436641E+00
             -0.105203179576365E+01
              0.287810367495451E-01
              0.210733569196092E+01
              0.580409771728549E+00
             -0.110807144923782E+01
              0.156447750361373E+00
             -0.215926480576544E+00
              0.269977072852940E+00
             -0.741884126621026E+00
              0.479336380618730E+00
              0.481821658611969E+00
             -0.176677331471761E+00
              0.230577426787232E+01
             -0.814687204652875E-01
             -0.624385623588978E+00
              0.630701795532097E+00
              0.879401881062748E+00
             -0.649314798693716E+00
             -0.186864244034448E-01
              0.201199110935979E+01
             -0.233676817128412E-01
              0.107397877797531E+01
              0.334331228699347E+00
             -0.136727555907126E+00
             -0.322638004077728E+00
              0.971983043433003E+00
             -0.120670733769663E+01
             -0.335485945905765E-01
             -0.414007018193202E+00
             -0.816828785893002E+00
              0.234669073189965E+00
              0.519199494021761E+00
             -0.332678929653856E-01
             -0.303374621117545E-01
             -0.857876127970337E+00
              0.305711134079374E+00
             -0.333672756580157E-01
             -0.445423514863442E+00
             -0.407108634077675E+00
              0.334434756745416E+00
             -0.165362928436608E-02
             -0.792858641593178E+00
             -0.219782644890344E+01
              0.143689807929598E+00
              0.298090844018573E+00
             -0.995507442685895E+00
             -0.523220424504117E+00
              0.168405729084206E+01
              0.271013333483458E+00
              0.907183886318988E+00
              0.227063847730475E+00
              0.816468453015240E+00
              0.457954413181163E-01
             -0.810886213365428E+00
             -0.259236033299424E+00
              0.108769713127784E+00
              0.642504222433975E+00
              0.150990342006399E+01
              0.101109329944792E+01
              0.598806846777400E-01
              0.238260090789969E+00
              0.124732456202037E+01
              0.577942572764686E+00
             -0.141669614565783E+01
             -0.563816354394247E+00
              0.217917987285611E+00
              0.208102935934301E+00
              0.517482059648793E+00
             -0.104354914386344E+01
              0.896455403676604E-01
              0.853492042858418E+00
              0.993897197853060E+00
             -0.865640484744704E+00
              0.643276876113958E-01
             -0.521761581381597E-01
             -0.427593537447370E+00
             -0.514276351541283E+00
             -0.234834682443409E+00
             -0.271023124584820E+00
              0.232700100483942E+00
              0.860612824692294E+00
             -0.667506012691764E+00
              0.166547528910317E+01
              0.677724228474038E+00
              0.538576867543002E+00
              0.768047939124353E+00
              0.495808764676486E+00
              0.737724656450065E+00
              0.113580420281491E+01
             -0.965958159686052E+00
              0.128717274162274E+01
             -0.233475162386519E+01
              0.641541369344356E+00
             -0.214726526893471E+01
              0.165172852457416E+01
              0.159691283415849E+01
             -0.170143140758146E+00
             -0.953487916233389E+00
             -0.888148701457215E+00
             -0.109733766955640E+01
             -0.135149261225198E+01
              0.111929266674059E+01
              0.876549111487231E+00
              0.498796756502796E+00
              0.518954167307498E+00
              0.932934691382583E+00
             -0.842258389739305E+00
             -0.297884728495447E+00
              0.109503837457973E+01
             -0.250460046807247E+00
              0.102601077956749E+01
              0.159280081316857E+01
             -0.842606515301751E-01
             -0.155126033843273E+01
              0.123346158201647E+00
              0.249514824118837E-01
             -0.212248110094338E+00
              0.596692796332876E-01
             -0.132091883674769E+01
             -0.163738850298573E+00
              0.284401891765036E+00
              0.300574235109855E+00
              0.102852153929330E+01
             -0.867348136322964E+00
              0.104283902010595E+01
             -0.787175014073249E+00
              0.563491630821441E+00
              0.892736472403850E+00
 
 BEEF-vdW xc energy contributions
           1 :   -14.3335148402886     
           2 :    11.8176128428564     
           3 :   -8.18418505210703     
           4 :    4.75050501219338     
           5 :   -2.16391627246893     
           6 :   0.582667280771474     
           7 :   0.119282046155615     
           8 :  -0.245244695814929     
           9 :   0.144456241873161     
          10 :  -8.792870878270165E-002
          11 :   0.175723580677463     
          12 :  -0.349577597292132     
          13 :   0.486519650314969     
          14 :  -0.501736255540351     
          15 :   0.386474685119888     
          16 :  -0.201364866878823     
          17 :   3.565030176928374E-002
          18 :   4.178601432797180E-002
          19 :  -2.099914600568198E-002
          20 :  -5.409584724714733E-002
          21 :   0.120258300641535     
          22 :  -0.135939304023065     
          23 :   0.101542520766994     
          24 :  -5.301646240797098E-002
          25 :   2.761687083699016E-002
          26 :  -3.907462254572636E-002
          27 :   7.726259433643889E-002
          28 :  -0.121844950880096     
          29 :   0.151152095529820     
          30 :  -0.151506850702127     
          31 :   -1.96179526763993     
          32 :   -1.24215690692019     

     Writing output data file ./pwscf.save/
 
     init_run     :     67.75s CPU     70.40s WALL (       1 calls)
     electrons    :    606.48s CPU    657.88s WALL (       1 calls)
     forces       :     28.36s CPU     30.82s WALL (       1 calls)

     Called by init_run:
     wfcinit      :      2.28s CPU      2.35s WALL (       1 calls)
     potinit      :     56.59s CPU     58.59s WALL (       1 calls)
     hinit0       :      7.26s CPU      7.38s WALL (       1 calls)

     Called by electrons:
     c_bands      :     96.39s CPU     97.55s WALL (      17 calls)
     sum_band     :     46.20s CPU     52.72s WALL (      17 calls)
     v_of_rho     :    363.37s CPU    396.65s WALL (      18 calls)
     newd         :     17.14s CPU     23.90s WALL (      18 calls)
     PAW_pot      :      2.29s CPU      2.29s WALL (      18 calls)
     mix_rho      :    131.74s CPU    137.62s WALL (      17 calls)
     vdW_kernel   :     33.49s CPU     33.49s WALL (       1 calls)

     Called by c_bands:
     init_us_2    :      1.66s CPU      1.69s WALL (      35 calls)
     regterg      :     92.68s CPU     93.83s WALL (      17 calls)

     Called by *egterg:
     rdiaghg      :      0.02s CPU      0.02s WALL (      90 calls)
     h_psi        :     82.56s CPU     82.59s WALL (      91 calls)
     s_psi        :      2.60s CPU      2.60s WALL (      91 calls)
     g_psi        :      0.31s CPU      0.31s WALL (      73 calls)

     Called by h_psi:
     h_psi:calbec :      1.75s CPU      1.75s WALL (      91 calls)
     vloc_psi     :     77.69s CPU     77.70s WALL (      91 calls)
     add_vuspsi   :      2.61s CPU      2.61s WALL (      91 calls)

     General routines
     calbec       :      2.26s CPU      2.26s WALL (     112 calls)
     fft          :    293.83s CPU    293.86s WALL (    2991 calls)
     ffts         :     55.68s CPU     55.68s WALL (     579 calls)
     fftw         :     74.09s CPU     74.10s WALL (     768 calls)
 
     Parallel routines
 
     PWSCF        :  21m 5.05s CPU  23m 3.92s WALL

 
   This run was terminated on:  15:47:27  23Jan2023            

=------------------------------------------------------------------------------=
   JOB DONE.
=------------------------------------------------------------------------------=
