
     Program PWSCF v.6.7MaX starts on 20Dec2022 at 16:21:24 

     This program is part of the open-source Quantum ESPRESSO suite
     for quantum simulation of materials; please cite
         "P. Giannozzi et al., J. Phys.:Condens. Matter 21 395502 (2009);
         "P. Giannozzi et al., J. Phys.:Condens. Matter 29 465901 (2017);
          URL http://www.quantum-espresso.org", 
     in publications or presentations arising from this work. More details at
     http://www.quantum-espresso.org/quote

     Parallel version (MPI), running on     1 processors

     MPI processes distributed on     1 nodes
     Reading input from chch3-gas-ensemble.in
Warning: card &CELL ignored
Warning: card / ignored

     Current dimensions of program PWSCF are:
     Max number of different atomic species (ntypx) = 10
     Max number of k-points (npk) =  40000
     Max angular momentum in pseudopotentials (lmaxx) =  3
     file C.pbe-n-kjpaw_psl.1.0.0.UPF: wavefunction(s)  2S 2P renormalized
     file H.pbe-kjpaw_psl.1.0.0.UPF: wavefunction(s)  1S renormalized

     **************************************************************************
     Initializing libbeef V0.1.2 with the BEEF-vdW functional.
     Citation: Wellendorff et al., PRB 85, 235149 (2012).
     **************************************************************************


     IMPORTANT: XC functional enforced from input :
     Exchange-correlation= BEEF-VDW
                           (   1   4  43  14   2   0   0)
     Any further DFT definition will be discarded
     Please, verify this is what you really want


     gamma-point specific algorithms are used

     Subspace diagonalization in iterative solution of the eigenvalue problem:
     a serial algorithm will be used

 
     G-vector sticks info
     --------------------
     sticks:   dense  smooth     PW     G-vecs:    dense   smooth      PW
     Sum       33629   33629   8405              4536267  4536267  566941
 


     bravais-lattice index     =            0
     lattice parameter (alat)  =      42.8515  a.u.
     unit-cell volume          =   72248.1332 (a.u.)^3
     number of atoms/cell      =            6
     number of atomic types    =            2
     number of electrons       =        12.00
     number of Kohn-Sham states=           10
     kinetic-energy cutoff     =      60.0000  Ry
     charge density cutoff     =     240.0000  Ry
     scf convergence threshold =      1.0E-06
     mixing beta               =       0.7000
     number of iterations used =            8  local-TF  mixing
     Exchange-correlation= BEEF-VDW
                           (   1   4  43  14   2   0   0)

     celldm(1)=  42.851490  celldm(2)=   0.000000  celldm(3)=   0.000000
     celldm(4)=   0.000000  celldm(5)=   0.000000  celldm(6)=   0.000000

     crystal axes: (cart. coord. in units of alat)
               a(1) = (   1.000000   0.000000   0.000000 )  
               a(2) = (   0.000000   0.958177   0.000000 )  
               a(3) = (   0.000000   0.000000   0.958259 )  

     reciprocal axes: (cart. coord. in units 2 pi/alat)
               b(1) = (  1.000000  0.000000  0.000000 )  
               b(2) = (  0.000000  1.043649  0.000000 )  
               b(3) = (  0.000000  0.000000  1.043559 )  


     PseudoPot. # 1 for C  read from file:
     /users/bkreitz1/quantum-espresso/potentials/C.pbe-n-kjpaw_psl.1.0.0.UPF
     MD5 check sum: a169b0ebad56f5ec0d79c4633f80bf22
     Pseudo is Projector augmented-wave + core cor, Zval =  4.0
     Generated using 'atomic' code by A. Dal Corso  v.6.7MaX
     Shape of augmentation charge: PSQ
     Using radial grid of 1073 points,  4 beta functions with: 
                l(1) =   0
                l(2) =   0
                l(3) =   1
                l(4) =   1
     Q(r) pseudized with 0 coefficients 


     PseudoPot. # 2 for H  read from file:
     /users/bkreitz1/quantum-espresso/potentials/H.pbe-kjpaw_psl.1.0.0.UPF
     MD5 check sum: ae98473e6dc62675f0d0baffdab24f65
     Pseudo is Projector augmented-wave, Zval =  1.0
     Generated using 'atomic' code by A. Dal Corso  v.6.7MaX
     Shape of augmentation charge: PSQ
     Using radial grid of  929 points,  2 beta functions with: 
                l(1) =   0
                l(2) =   0
     Q(r) pseudized with 0 coefficients 


     atomic species   valence    mass     pseudopotential
        C              4.00    12.01100     C ( 1.00)
        H              1.00     1.00800     H ( 1.00)

     No symmetry found



   Cartesian axes

     site n.     atom                  positions (alat units)
         1           C   tau(   1) = (   0.5237595   0.4720756   0.4429383  )
         2           C   tau(   2) = (   0.4788984   0.4822958   0.4874851  )
         3           H   tau(   3) = (   0.5541264   0.4385283   0.4617389  )
         4           H   tau(   4) = (   0.5085788   0.5151329   0.5101195  )
         5           H   tau(   5) = (   0.4682782   0.4490383   0.5210449  )
         6           H   tau(   6) = (   0.4403262   0.5073320   0.4733849  )

     number of k points=     1  Gaussian smearing, width (Ry)=  0.0050
                       cart. coord. in units 2pi/alat
        k(    1) = (   0.0000000   0.0000000   0.0000000), wk =   2.0000000

     Dense  grid:  2268134 G-vectors     FFT dimensions: ( 216, 216, 216)

     Estimated max dynamical RAM per process >       3.62 GB

     Initial potential from superposition of free atoms

     starting charge   11.99988, renormalised to   12.00000

     negative rho (up, down):  7.278E-03 0.000E+00


     %%%%%%%%%%%%%%%%%%%%%%%%%%%%%%%%%%%%%%%%%%%%%%%%%%%%%%%%%%%%%%%%%%%%%%%%
     %                                                                      %
     % You are using vdW-DF, which was implemented by the Thonhauser group. %
     % Please cite the following two papers that made this development      %
     % possible and the two reviews that describe the various versions:     %
     %                                                                      %
     %   T. Thonhauser et al., PRL 115, 136402 (2015).                      %
     %   T. Thonhauser et al., PRB 76, 125112 (2007).                       %
     %   K. Berland et al., Rep. Prog. Phys. 78, 066501 (2015).             %
     %   D.C. Langreth et al., J. Phys.: Condens. Matter 21, 084203 (2009). %
     %                                                                      %
     %                                                                      %
     % If you are calculating the stress with vdW-DF, please also cite:     %
     %                                                                      %
     %   R. Sabatini et al., J. Phys.: Condens. Matter 24, 424209 (2012).   %
     %                                                                      %
     %%%%%%%%%%%%%%%%%%%%%%%%%%%%%%%%%%%%%%%%%%%%%%%%%%%%%%%%%%%%%%%%%%%%%%%%


     Starting wfcs are   12 randomized atomic wfcs
     Checking if some PAW data can be deallocated... 

     total cpu time spent up to now is       68.5 secs

     Self-consistent Calculation

     iteration #  1     ecut=    60.00 Ry     beta= 0.70
     Davidson diagonalization with overlap
     ethr =  1.00E-02,  avg # of iterations =  4.0

     negative rho (up, down):  5.875E-03 0.000E+00

     total cpu time spent up to now is      104.1 secs

     total energy              =     -42.63095432 Ry
     estimated scf accuracy    <       0.69620263 Ry

     iteration #  2     ecut=    60.00 Ry     beta= 0.70
     Davidson diagonalization with overlap
     ethr =  5.80E-03,  avg # of iterations =  1.0

     negative rho (up, down):  5.034E-03 0.000E+00

     total cpu time spent up to now is      138.2 secs

     total energy              =     -42.58503302 Ry
     estimated scf accuracy    <       0.16176303 Ry

     iteration #  3     ecut=    60.00 Ry     beta= 0.70
     Davidson diagonalization with overlap
     ethr =  1.35E-03,  avg # of iterations =  4.0

     negative rho (up, down):  7.701E-03 0.000E+00

     total cpu time spent up to now is      174.1 secs

     total energy              =     -42.59818060 Ry
     estimated scf accuracy    <       0.02250080 Ry

     iteration #  4     ecut=    60.00 Ry     beta= 0.70
     Davidson diagonalization with overlap
     ethr =  1.88E-04,  avg # of iterations =  7.0

     negative rho (up, down):  2.173E-02 0.000E+00

     total cpu time spent up to now is      212.1 secs

     total energy              =     -42.59565640 Ry
     estimated scf accuracy    <       0.01004681 Ry

     iteration #  5     ecut=    60.00 Ry     beta= 0.70
     Davidson diagonalization with overlap
     ethr =  8.37E-05,  avg # of iterations =  6.0

     negative rho (up, down):  9.826E-02 0.000E+00

     total cpu time spent up to now is      249.5 secs

     total energy              =     -42.59656132 Ry
     estimated scf accuracy    <       0.00472955 Ry

     iteration #  6     ecut=    60.00 Ry     beta= 0.70
     Davidson diagonalization with overlap
     ethr =  3.94E-05,  avg # of iterations =  5.0

     negative rho (up, down):  8.689E-02 0.000E+00

     total cpu time spent up to now is      287.4 secs

     total energy              =     -42.59667232 Ry
     estimated scf accuracy    <       0.00166282 Ry

     iteration #  7     ecut=    60.00 Ry     beta= 0.70
     Davidson diagonalization with overlap
     ethr =  1.39E-05,  avg # of iterations =  4.0

     negative rho (up, down):  8.314E-02 0.000E+00

     total cpu time spent up to now is      323.3 secs

     total energy              =     -42.59621342 Ry
     estimated scf accuracy    <       0.00086794 Ry

     iteration #  8     ecut=    60.00 Ry     beta= 0.70
     Davidson diagonalization with overlap
     ethr =  7.23E-06,  avg # of iterations = 17.0

     negative rho (up, down):  6.874E-02 0.000E+00

     total cpu time spent up to now is      363.7 secs

     total energy              =     -42.59590203 Ry
     estimated scf accuracy    <       0.00044612 Ry

     iteration #  9     ecut=    60.00 Ry     beta= 0.70
     Davidson diagonalization with overlap
     ethr =  3.72E-06,  avg # of iterations =  4.0

     negative rho (up, down):  4.321E-02 0.000E+00

     total cpu time spent up to now is      399.3 secs

     total energy              =     -42.59547754 Ry
     estimated scf accuracy    <       0.00015097 Ry

     iteration # 10     ecut=    60.00 Ry     beta= 0.70
     Davidson diagonalization with overlap
     c_bands:  2 eigenvalues not converged
     ethr =  1.26E-06,  avg # of iterations = 20.0

     negative rho (up, down):  3.336E-02 0.000E+00

     total cpu time spent up to now is      441.0 secs

     total energy              =     -42.59542174 Ry
     estimated scf accuracy    <       0.00011307 Ry

     iteration # 11     ecut=    60.00 Ry     beta= 0.70
     Davidson diagonalization with overlap
     ethr =  9.42E-07,  avg # of iterations = 18.0

     negative rho (up, down):  2.366E-02 0.000E+00

     total cpu time spent up to now is      480.3 secs

     total energy              =     -42.59545581 Ry
     estimated scf accuracy    <       0.00002889 Ry

     iteration # 12     ecut=    60.00 Ry     beta= 0.70
     Davidson diagonalization with overlap
     ethr =  2.41E-07,  avg # of iterations =  9.0

     negative rho (up, down):  1.672E-02 0.000E+00

     total cpu time spent up to now is      516.8 secs

     total energy              =     -42.59547145 Ry
     estimated scf accuracy    <       0.00001135 Ry

     iteration # 13     ecut=    60.00 Ry     beta= 0.70
     Davidson diagonalization with overlap
     ethr =  9.46E-08,  avg # of iterations =  5.0

     negative rho (up, down):  1.487E-02 0.000E+00

     total cpu time spent up to now is      552.0 secs

     total energy              =     -42.59547790 Ry
     estimated scf accuracy    <       0.00000251 Ry

     iteration # 14     ecut=    60.00 Ry     beta= 0.70
     Davidson diagonalization with overlap
     ethr =  2.09E-08,  avg # of iterations =  1.0

     negative rho (up, down):  1.285E-02 0.000E+00

     total cpu time spent up to now is      585.6 secs

     total energy              =     -42.59548151 Ry
     estimated scf accuracy    <       0.00000101 Ry

     iteration # 15     ecut=    60.00 Ry     beta= 0.70
     Davidson diagonalization with overlap
     ethr =  8.43E-09,  avg # of iterations =  2.0

     negative rho (up, down):  1.252E-02 0.000E+00

     total cpu time spent up to now is      611.4 secs

     End of self-consistent calculation

          k = 0.0000 0.0000 0.0000 (283471 PWs)   bands (ev):

   -19.8741 -14.6440 -11.4393 -10.9769  -9.3810  -5.3179  -3.5990  -1.0544
    -0.3869  -0.3340

     the Fermi energy is    -3.9127 ev

!    total energy              =     -42.59548068 Ry

     total all-electron energy =      -158.123658 Ry
     estimated scf accuracy    <       0.00000028 Ry
     smearing contrib. (-TS)   =      -0.00000000 Ry
     internal energy E=F+TS    =     -42.59548068 Ry

     The total energy is F=E-TS. E is the sum of the following terms:
     one-electron contribution =     -93.81252137 Ry
     hartree contribution      =      48.32833503 Ry
     xc contribution           =     -12.42676879 Ry
     ewald contribution        =      28.42525198 Ry
     one-center paw contrib.   =     -13.10977753 Ry

     convergence has been achieved in  15 iterations

     negative rho (up, down):  1.252E-02 0.000E+00

     Forces acting on atoms (cartesian axes, Ry/au):

     atom    1 type  1   force =     0.00140924   -0.00138510    0.00053545
     atom    2 type  1   force =     0.00080021    0.00174934    0.00124530
     atom    3 type  2   force =    -0.00053354    0.00003403   -0.00081231
     atom    4 type  2   force =    -0.00117907   -0.00032774   -0.00085842
     atom    5 type  2   force =    -0.00014490   -0.00016023   -0.00029347
     atom    6 type  2   force =    -0.00035194    0.00008970    0.00018345

     Total force =     0.003595     Total SCF correction =     0.000295

     negative rho (up, down):  1.252E-02 0.000E+00

     negative rho (up, down):  1.252E-02 0.000E+00

     negative rho (up, down):  1.252E-02 0.000E+00

     negative rho (up, down):  1.252E-02 0.000E+00

     negative rho (up, down):  1.252E-02 0.000E+00

     negative rho (up, down):  1.252E-02 0.000E+00

     negative rho (up, down):  1.252E-02 0.000E+00

     negative rho (up, down):  1.252E-02 0.000E+00

     negative rho (up, down):  1.252E-02 0.000E+00

     negative rho (up, down):  1.252E-02 0.000E+00

     negative rho (up, down):  1.252E-02 0.000E+00

     negative rho (up, down):  1.252E-02 0.000E+00

     negative rho (up, down):  1.252E-02 0.000E+00

     negative rho (up, down):  1.252E-02 0.000E+00

     negative rho (up, down):  1.252E-02 0.000E+00

     negative rho (up, down):  1.252E-02 0.000E+00

     negative rho (up, down):  1.252E-02 0.000E+00

     negative rho (up, down):  1.252E-02 0.000E+00

     negative rho (up, down):  1.252E-02 0.000E+00

     negative rho (up, down):  1.252E-02 0.000E+00

     negative rho (up, down):  1.252E-02 0.000E+00

     negative rho (up, down):  1.252E-02 0.000E+00

     negative rho (up, down):  1.252E-02 0.000E+00

     negative rho (up, down):  1.252E-02 0.000E+00

     negative rho (up, down):  1.252E-02 0.000E+00

     negative rho (up, down):  1.252E-02 0.000E+00

     negative rho (up, down):  1.252E-02 0.000E+00

     negative rho (up, down):  1.252E-02 0.000E+00

     negative rho (up, down):  1.252E-02 0.000E+00

     negative rho (up, down):  1.252E-02 0.000E+00

     negative rho (up, down):  1.252E-02 0.000E+00

     negative rho (up, down):  1.252E-02 0.000E+00

     negative rho (up, down):  1.252E-02 0.000E+00

     negative rho (up, down):  1.252E-02 0.000E+00
 BEEFens 2000 ensemble energies
             -0.960723766625867E+00
             -0.244675486325452E-01
             -0.181773432009437E+00
              0.642495209559477E+00
             -0.308211841008707E+00
             -0.210977081645953E+00
             -0.720704905644639E+00
             -0.144262310662596E+01
             -0.462947348486470E+00
             -0.501241259705199E+00
             -0.521052145453183E+00
              0.102200788285123E+00
              0.522894958927376E-01
             -0.100630124692644E+00
              0.563957902658152E-01
              0.688164469596547E+00
             -0.276201968665406E+00
             -0.970005011783688E-01
              0.368042798446963E+00
             -0.160994418908761E+01
              0.817038570386527E+00
             -0.255207030117038E+00
             -0.948940624570204E-01
             -0.121165602551351E+00
              0.747033743043417E-01
             -0.591074911406055E-01
              0.128575072425339E+01
             -0.363297249326232E+00
             -0.103245831010870E+00
             -0.829784434027219E+00
              0.953596618910705E+00
             -0.135442509348578E-01
             -0.608373385422570E+00
              0.233156424122942E+00
             -0.409520007338200E-01
              0.459504084231271E+00
              0.424857491164379E-01
             -0.324693758958330E-01
              0.596903976937232E+00
             -0.143070864151494E+01
              0.806113128752534E+00
              0.174586575204462E+00
             -0.216514690717304E+00
             -0.408470935726021E+00
              0.181620937593264E+00
             -0.275368705667871E+00
              0.760415016861494E+00
              0.505250938699718E+00
             -0.241865435807986E+00
             -0.472661212132440E+00
             -0.451925104745039E+00
             -0.560349074186528E+00
              0.373094184602362E+00
             -0.763319266841899E+00
              0.248402745383663E+00
              0.893926837760001E+00
              0.112760513165860E+01
              0.460010183301743E+00
              0.236834350594363E+00
              0.497120173939271E+00
              0.134351381806249E+01
              0.212659434566942E+00
             -0.799180754315592E+00
             -0.123596382698469E+00
             -0.449352440735515E+00
              0.900298337821346E+00
             -0.102626504743094E+01
             -0.851597679439217E+00
             -0.527707499788512E+00
             -0.332644830848013E+00
             -0.532584477495922E+00
              0.408941231554726E+00
              0.207685568927538E+00
              0.244024068011951E+00
             -0.568349831668012E+00
             -0.517204959788136E+00
             -0.872168331732573E+00
              0.429805284789525E+00
             -0.512410521321315E+00
              0.495114066507893E+00
             -0.136249947808889E+00
             -0.400859519646205E+00
             -0.696009041257272E+00
             -0.206430916829761E+00
             -0.257219469482436E+00
             -0.200461254847019E+00
              0.568022749312879E+00
              0.117424759072293E+01
             -0.679706057991290E+00
             -0.114766896177174E+01
             -0.260887605222045E+00
              0.157092019126505E+01
             -0.818951338694417E+00
              0.438426113821482E+00
             -0.172528114657617E+00
             -0.844004773118118E+00
              0.407039915655570E+00
              0.409984347934189E+00
             -0.210566066714001E+00
              0.391172446283351E+00
             -0.349368801952286E+00
             -0.932114036119863E+00
              0.151171440529316E+01
              0.650481459068709E+00
              0.270203910470966E+00
              0.173781517108916E+00
              0.349406202747465E+00
              0.117781338325151E+01
             -0.396763907439737E+00
              0.318395619539789E-01
             -0.200098765240950E+01
              0.247500986830725E+00
             -0.951553189115484E+00
              0.178608070777710E+00
              0.317019267732873E+00
             -0.552463419171447E+00
             -0.713611234690636E+00
              0.179833647920074E-01
             -0.459284553834274E+00
              0.674962868977200E+00
             -0.641578786896799E+00
             -0.150514063542563E+00
             -0.566522279763204E+00
             -0.413569988807980E-01
              0.992785471216795E-01
              0.366800652155690E+00
             -0.723057282631601E-02
             -0.868051307556517E-01
              0.100252640544492E+01
              0.134461421255050E+01
              0.729305468999679E+00
              0.891260162429113E+00
             -0.198073646951723E+00
              0.938496384901937E-01
              0.737839402726227E+00
              0.129471974172010E+00
             -0.111759784922601E+01
             -0.674250961333125E+00
             -0.712609728539726E+00
             -0.430916953964853E+00
              0.365813729694466E+00
             -0.178321004560371E+01
             -0.161499996447408E+00
              0.688048126352830E+00
             -0.598263201440900E+00
             -0.398106756068385E+00
              0.871823482784587E+00
              0.728615526329329E+00
             -0.400598294784964E+00
              0.543995490241959E+00
             -0.370325596136880E+00
              0.557457886127396E+00
              0.998456819279827E-01
              0.126982053107027E+00
             -0.118060634116874E+01
             -0.691792180776419E+00
             -0.133668438907517E+00
             -0.747149814846913E-01
             -0.635420956150529E+00
              0.163968453927782E+01
             -0.129548881569924E+00
             -0.372512418606289E+00
              0.558081889903091E+00
             -0.630722284186273E+00
             -0.569636137794336E+00
              0.483278687812449E+00
              0.182797407756366E+00
              0.155906729395335E+00
              0.258217494276123E+00
             -0.151469231835202E+00
              0.111158929340964E+00
              0.842988217279089E+00
             -0.371435997004743E+00
              0.334218660609364E+00
              0.128888023448367E+01
              0.454963372625392E+00
             -0.436018537446827E-01
             -0.309697367543359E+00
              0.226735883354937E+01
             -0.393199141161059E+00
              0.590647351141026E+00
              0.482430026482268E+00
              0.367348557227161E+00
              0.135439759451298E+01
              0.650954168415666E+00
             -0.742099953901407E-01
              0.375641007380862E+00
              0.773003443757130E+00
              0.550521989676925E+00
             -0.912249491548534E+00
              0.138344021788894E+01
             -0.126454731062399E+01
             -0.122124877684214E+00
              0.803281284705673E+00
              0.292162810053531E+00
              0.749330882787014E-01
              0.372302376491026E+00
              0.202447900240113E+00
              0.459951354876407E+00
             -0.900152076803868E+00
              0.439731415406701E-01
             -0.329111034310284E+00
             -0.582099146846091E-01
             -0.491239145916662E-01
             -0.211030134627329E+00
             -0.988343783211230E-01
              0.121395033163552E+01
             -0.601443757578646E-01
             -0.415300131777482E+00
             -0.130932022855387E-01
              0.214876345411236E+00
             -0.948034695067834E+00
             -0.859160880033727E+00
             -0.481192463254905E+00
             -0.915478156709845E+00
             -0.278225248716902E+00
             -0.578807339929121E+00
              0.256244992590018E+00
              0.464999110611708E-01
             -0.197637668783613E+00
             -0.112772998836509E+00
              0.652450221337260E-01
             -0.160890934956305E+00
              0.949111054228751E+00
             -0.130576296376430E+01
             -0.185920948885412E+00
             -0.184986366128731E+00
              0.219388985913398E+00
              0.339582999146023E+00
             -0.757199836723487E+00
             -0.148235695373272E+00
              0.659435171903335E+00
             -0.272110391219409E+00
              0.192739625317641E+00
              0.476834923904682E+00
             -0.168936621020155E-02
              0.167105158247299E+01
             -0.109992561689696E+00
             -0.503125774455172E+00
             -0.227146807734382E-01
             -0.432072129725372E+00
              0.792221283648888E+00
             -0.755733204558080E+00
              0.225018801220608E+00
              0.667231102119849E+00
             -0.186055576481805E+00
              0.171057519772452E+01
              0.185418357174778E+01
             -0.104790495362666E+01
              0.838113907349546E+00
              0.373142326309515E+00
             -0.832969086043954E+00
              0.245093699518823E+00
              0.663508811501500E+00
              0.715298275718922E+00
              0.701518102469221E-01
              0.296658349336125E+00
              0.111666080184484E+01
             -0.336458510669067E+00
              0.118075618228764E+00
              0.948387717905642E+00
             -0.518418450697780E+00
             -0.394514975706305E+00
              0.897343107443379E+00
              0.460767234221971E+00
              0.110883122933019E+01
              0.536655990744164E+00
              0.228321634761121E+00
              0.352730378019806E+00
              0.638568210033114E+00
             -0.804004427932835E+00
              0.130882521184934E+00
              0.454100778498124E+00
              0.155501377184105E+00
              0.367331615326409E+00
             -0.928618738015961E+00
              0.452146161673342E+00
             -0.620732932757977E+00
             -0.456335676470037E+00
              0.305147037209107E+00
             -0.103985378155832E+00
              0.896730978814979E+00
             -0.155588505051998E+00
              0.429007572601129E+00
              0.422938055043430E+00
              0.111046155912303E+01
              0.753554783776599E+00
              0.767038239454003E+00
              0.259294712327751E-02
             -0.185272435841416E+00
             -0.430694887533543E+00
              0.122350154193212E+01
              0.121296838204653E+01
              0.581704762487854E+00
             -0.437649361760753E+00
              0.714505246969468E+00
              0.416018199127044E-01
              0.224147722007908E+00
              0.104310743286693E+01
             -0.527063332651823E-01
             -0.152820058013019E+00
             -0.279824175863407E+00
             -0.940724487870414E+00
              0.140817960782486E+01
              0.781529582261475E+00
             -0.973932682620010E+00
             -0.337322393590641E+00
              0.352173514349183E+00
             -0.152079598963462E+00
              0.971134991109634E+00
              0.223747639755754E+00
              0.118736543455135E+01
              0.464096476710602E+00
             -0.305913997777211E+00
              0.229592311730104E+00
             -0.109227158184001E+00
             -0.335333265835514E+00
              0.244872305451866E+00
              0.212614145487224E+00
              0.133239931864428E+01
              0.110324649371334E+01
              0.852660213660671E+00
              0.961534968070143E+00
              0.107941077207719E+00
             -0.370772571269860E+00
              0.187070019720611E+00
             -0.477961557252564E+00
             -0.855553026946485E+00
             -0.813061522157211E+00
             -0.485932697052371E+00
             -0.158273387454218E+01
             -0.570039541656595E+00
             -0.127734329583129E+01
              0.307475811820925E+00
             -0.656699374282280E+00
              0.782041103030248E+00
             -0.146460669617589E+01
             -0.425351988427773E+00
              0.514830570049062E+00
              0.313142371008546E+00
             -0.134515539292114E+01
              0.739894827504664E+00
             -0.429341678581929E+00
              0.818920401324727E+00
             -0.388249105315613E+00
             -0.114493335967443E+01
              0.270240689740938E+00
             -0.969553371382277E+00
             -0.838115235033321E-02
             -0.366267449758655E-01
              0.595758395024019E+00
              0.184201287001638E+01
             -0.614980384137358E+00
             -0.547129315890661E+00
             -0.119639292814507E+00
             -0.981084283453746E-01
             -0.116405152780200E+01
             -0.825042845934789E+00
              0.720393986042597E+00
             -0.233455890595685E+00
              0.349700266006614E+00
             -0.717753181404704E+00
             -0.240995914621326E+00
             -0.608677762969363E+00
              0.689054229617259E+00
              0.157996129595601E+00
             -0.364442802332037E+00
             -0.284742371659811E+00
              0.212740317961225E+00
             -0.111531335820771E+00
              0.571763192131638E+00
             -0.390264793560066E+00
              0.198997504419197E+00
              0.501870550362249E+00
              0.161320898581141E+00
             -0.377596072045066E+00
              0.225980944481268E+01
              0.900665415785716E+00
              0.162476857006122E+00
              0.729535042905010E-01
             -0.889985129616556E+00
              0.494490847533445E+00
             -0.115333601315399E+01
             -0.522763549828535E+00
             -0.892170619434770E+00
             -0.265097858280278E+00
              0.877550791692234E+00
             -0.855534332815237E+00
              0.420651876787389E+00
             -0.720076981712481E-01
              0.967547339963559E-02
             -0.437355835916302E+00
             -0.593787884803866E+00
             -0.126045638614218E+00
             -0.441516439596066E+00
             -0.315258361071889E+00
             -0.579571290843953E+00
             -0.606808251865671E-01
             -0.456755946684832E+00
             -0.701058930251356E+00
              0.306029772379385E+00
             -0.151922690335200E+00
              0.365001617328873E+00
              0.119094104205422E+00
             -0.111392580358370E+01
             -0.728159272579955E+00
             -0.772536220463286E+00
              0.448980197708684E+00
             -0.116070543086258E+00
             -0.890300863309566E+00
              0.835594471263492E+00
             -0.627248841984134E+00
              0.878275260199118E+00
             -0.464878515420809E+00
             -0.718099259550895E+00
              0.342083563702696E+00
             -0.107251042424644E+01
             -0.443959491915673E+00
              0.844672535350219E+00
              0.308413582799922E+00
             -0.662295153234481E+00
              0.838750252455453E+00
             -0.238812778370433E+00
             -0.549762324037323E+00
             -0.436671152539501E+00
             -0.775945842617221E+00
              0.392614703960508E+00
             -0.126975381086862E+01
             -0.109958044693297E+01
             -0.110668282130185E+00
             -0.420647890541656E+00
             -0.907483000431369E+00
              0.112877581226639E+01
              0.203509034333211E+01
             -0.276743462134806E+00
             -0.577128150635877E-01
             -0.877443689732982E+00
              0.968652400052047E+00
              0.331893547318812E+00
             -0.322787353099633E+00
             -0.520749837038077E+00
              0.200169358016874E+00
             -0.866095347072502E+00
             -0.146824659564079E+00
             -0.124871830397307E+01
              0.497850166288631E+00
              0.155585738004664E+00
             -0.959238461805842E-01
             -0.193869104652022E+00
             -0.647229434865366E+00
             -0.211230130313339E+00
              0.203620023148188E+01
             -0.215552217539794E+00
             -0.730053700020949E+00
             -0.102237390721830E+01
              0.215588373824140E+00
             -0.574497244446082E+00
              0.157446515891111E+00
              0.501476403733887E+00
              0.711876424324256E-01
              0.551275133597218E+00
              0.289340534435569E+00
              0.856892413857238E+00
              0.338511284659906E+00
             -0.545368903121492E+00
              0.837630282825252E+00
              0.500870678526936E+00
              0.187314296281733E+00
              0.526859038877544E+00
             -0.486163466305618E+00
              0.104346399277566E+01
              0.407028308399972E+00
             -0.523129278338567E+00
             -0.860570261905883E-01
             -0.237207693578450E+00
              0.201081256025842E+00
             -0.360949294908287E+00
             -0.206714965732262E+00
             -0.197628793717252E+00
              0.118006694002620E+01
              0.871083586158720E+00
             -0.923571966099177E+00
             -0.136503932475117E+00
             -0.720710595293170E+00
             -0.175731086741486E+00
             -0.312021072657900E+00
              0.176414459466044E+00
             -0.466485932544782E-01
             -0.432101777463930E+00
              0.268970449831071E+00
             -0.145639191518051E+00
             -0.953059583102814E-01
              0.127752610181859E+01
              0.205044338237514E+00
             -0.123620216562951E+01
             -0.546897448653075E+00
              0.142063221272561E+01
              0.338954499720976E+00
             -0.122315159867098E+00
              0.162250725015993E+01
             -0.229285836057971E+00
             -0.997793246957350E-01
             -0.197396259496193E+00
              0.244559065967414E+00
              0.507986308844403E+00
              0.358505213681608E-01
              0.421439185737711E+00
             -0.143734952608687E+00
             -0.617875623351906E+00
             -0.572412479254830E+00
             -0.711505974789059E+00
              0.586219117628309E+00
              0.219662308571383E+00
              0.558780326588869E+00
              0.242748990859369E+00
              0.133386984916506E+01
              0.304782446415129E+00
             -0.111840113625534E+01
             -0.483861703926254E+00
              0.191247534689871E-01
             -0.411848994943735E+00
              0.942979823904829E+00
             -0.241433584438845E+00
              0.244459329242474E+00
              0.825927635052554E+00
             -0.120619267812078E+01
              0.216757079722996E+01
              0.290240653144072E+00
              0.351502142826098E+00
              0.568043255892720E+00
              0.406649701389963E-01
             -0.295981607012008E-01
              0.465066876207459E+00
             -0.522426216045582E+00
              0.129113729339486E+01
              0.113013902581163E+01
             -0.569231210224457E+00
              0.261648628749235E+00
              0.106983530916664E+01
             -0.311564506747914E+00
              0.316298398490487E+00
              0.455749243994920E+00
              0.602941870854813E+00
             -0.108297641998698E+01
             -0.653307499420066E-01
             -0.365333038375454E+00
             -0.100463560961574E+00
             -0.118957774239461E+00
              0.133544321117387E+00
             -0.174685299364705E+00
             -0.455748488206170E+00
              0.270939736158748E+00
              0.770339255219179E-01
              0.783668329856873E+00
             -0.697663069945259E+00
              0.697188382795399E+00
              0.764448665445335E+00
             -0.106411172298388E+00
              0.106384036624540E+01
             -0.986110926322154E+00
             -0.151455013061098E+01
             -0.122962566477844E+00
             -0.987910147766300E-01
             -0.347826731073386E-02
              0.114720911524634E+01
             -0.310824031364276E-02
              0.631318763341519E+00
              0.912734530849013E+00
              0.572473858409181E+00
             -0.845086415341187E-01
              0.858781528646125E+00
             -0.249406381669800E+00
             -0.591915073153968E+00
             -0.506333452459802E+00
              0.165562578802497E+00
              0.507158587422407E+00
             -0.310579545878902E-01
              0.481424276984858E+00
              0.199858339605292E-01
              0.793816655916898E+00
              0.226088607238485E+00
              0.111525691612812E+00
              0.279517337446435E-01
              0.422225049254702E+00
              0.602263783477728E+00
              0.203902385226188E+00
             -0.540392782917825E-01
             -0.802150765553881E+00
              0.442340590121990E+00
              0.308293456639827E+00
              0.476669379496646E+00
              0.439269497608107E+00
              0.533917730168414E+00
             -0.139054512813891E+00
              0.524149518699700E+00
             -0.444168276767909E+00
             -0.310490012141837E-01
             -0.768821041506509E+00
             -0.511524955395692E+00
              0.644935444130942E+00
             -0.129403214188316E+01
              0.342390684776694E+00
              0.202063755158624E+00
              0.128315389854295E+01
             -0.154569862526820E+00
              0.496423868054092E+00
             -0.164732175727787E+00
             -0.728067825294735E+00
             -0.948815958321344E+00
             -0.245601736722455E+00
             -0.135394136775266E+01
              0.102090758767073E+00
             -0.307311973862840E+00
              0.487061384383742E+00
              0.371065576149043E+00
             -0.436900356464148E+00
             -0.463707953973334E+00
              0.638993055553661E+00
             -0.844232161829453E+00
             -0.207519546765836E+00
             -0.229347840927966E+00
              0.410342777708272E+00
              0.101841486605317E+00
              0.483803232796303E-01
             -0.208452995557947E+00
              0.781406622238429E+00
             -0.919707868062323E+00
              0.980324330757263E-01
              0.892193398608145E+00
             -0.545110661378146E+00
              0.603931372104984E-01
              0.407373191030791E-01
             -0.951141873410963E+00
             -0.537312980694993E+00
             -0.975453310386692E-02
              0.471584090486532E+00
              0.515234057824336E+00
              0.740161159090502E-01
             -0.182806677368792E+00
              0.240385710151561E+00
             -0.582843058806864E+00
             -0.880947816440960E-01
             -0.785020207068116E+00
             -0.384284845851043E+00
              0.745074027049293E+00
             -0.450668863919181E+00
              0.104968913780685E+01
             -0.357721465479031E+00
              0.480540260211146E+00
              0.379241989698760E+00
             -0.877286066602529E+00
             -0.363409504868458E+00
              0.141491607220865E+00
             -0.623830303258405E+00
             -0.623265978893133E+00
             -0.131701224956959E+01
             -0.817617687346260E+00
             -0.722057210765247E+00
             -0.671591111228254E+00
              0.161500565819095E-02
              0.386425668113230E+00
              0.196398553659730E+00
              0.425594361484973E+00
             -0.869040692224619E+00
              0.195660512912187E+00
              0.447093982964113E+00
             -0.101813402188670E+01
             -0.822148604427228E+00
             -0.575624530013339E+00
             -0.512895466135927E+00
              0.199335211678565E+00
             -0.544366132105516E-01
             -0.606759251689417E+00
              0.392759095417797E+00
             -0.348526056112518E+00
              0.774582509677835E+00
             -0.129181918629053E+01
              0.951733938367926E+00
             -0.189956998666060E+00
             -0.672192876647380E+00
             -0.405532200874875E+00
             -0.289130401403526E-01
              0.734046474781215E+00
             -0.101779181312719E+01
             -0.181335694963595E+00
             -0.239378365054606E+00
              0.588064657815529E+00
              0.117275569308113E+01
             -0.149145196925753E+01
              0.134487794221423E+01
              0.546576773735229E+00
             -0.112594940214623E+01
             -0.450542509199160E+00
              0.117458045314655E+01
              0.829933459935176E+00
             -0.325745352863433E+00
             -0.113244010974828E+00
              0.292345052511764E+00
              0.116735536932334E+01
             -0.895483202171340E+00
              0.180904291704658E+00
             -0.113462623404783E+00
              0.376777015561525E+00
             -0.102963492799019E+01
             -0.230140249818445E-01
             -0.380218475613095E+00
              0.717657888588333E+00
              0.552973858100748E+00
             -0.132312805368697E+01
             -0.690496750452068E+00
             -0.298646934824434E+00
             -0.662631448665902E+00
             -0.179312577206149E+00
             -0.249444934828902E+00
              0.683061508378494E+00
              0.639497975007431E+00
             -0.129022844077995E-01
             -0.646519978476230E+00
             -0.127957777818488E+01
              0.764909435155035E+00
             -0.666249427434108E+00
             -0.568768873586481E+00
              0.115042213982887E+00
             -0.556496459666020E+00
             -0.590326058440666E+00
             -0.478216394889093E+00
             -0.786350304624568E+00
             -0.339045458259689E+00
             -0.731292802494774E+00
              0.804828831071787E+00
              0.856581697210984E+00
             -0.176012910829817E+00
             -0.297738523519495E+00
              0.541170125316821E-01
              0.627987328836827E+00
             -0.124572280090558E+01
             -0.354883084781246E+00
              0.728556181270516E+00
              0.107181944040767E+01
             -0.133253300605993E+00
              0.152605762023159E+00
              0.780321535010343E+00
              0.225359537351550E+00
              0.542931951454837E-01
             -0.565948476835157E+00
              0.197977839381287E+00
             -0.473360552682950E+00
             -0.992385418759882E-01
             -0.316500296147322E+00
             -0.200132424253978E+00
              0.365719243975989E+00
              0.117416884381549E+01
             -0.122854251727396E+00
              0.197392547698216E-01
             -0.135676194942666E+01
             -0.274522790745438E+00
             -0.518243024259030E+00
             -0.278045966364289E-01
             -0.708670117905602E+00
              0.135696404036284E+01
              0.128982934769286E+01
              0.280991504670408E+00
             -0.368088539107529E+00
              0.276351862913109E+00
              0.285900237690859E+00
             -0.680195553554508E+00
             -0.140017859411287E+00
              0.310565753370994E+00
              0.172086401736598E+00
              0.740408868171728E+00
              0.564794638254653E+00
             -0.309601956322760E+00
              0.300182708317458E+00
             -0.144602485532761E+01
             -0.223948368792414E-01
              0.133508456635417E+01
              0.287467427269535E+00
             -0.461837502024647E-01
              0.389582254188772E+00
             -0.337453458652967E+00
              0.127236741643402E+01
             -0.318204406408075E+00
              0.112571885300898E+01
              0.568861588382047E+00
             -0.674269857843863E+00
              0.496019444469313E+00
             -0.403926728907358E+00
             -0.100454391812754E+01
             -0.122329222257777E+00
             -0.793273332529486E+00
             -0.767985672320306E+00
             -0.113178507524281E-01
              0.571930671751922E+00
             -0.221561369981959E+00
             -0.442112975743381E+00
              0.109202539212185E+00
             -0.950339239855772E+00
             -0.383566500181195E-01
             -0.129196595748535E+01
              0.768198968767705E+00
             -0.626735656469151E-01
             -0.720627335918036E+00
             -0.228626417300964E+00
              0.252964590389574E+00
             -0.574280194789614E+00
             -0.643425326659516E+00
              0.135321335300483E+01
             -0.422558455043083E+00
             -0.537224679045734E+00
              0.485744726954247E+00
             -0.347117309703635E+00
              0.852490792799127E+00
             -0.412774095899664E-01
              0.212625367224355E-01
              0.163124773710384E+01
             -0.109929014214249E+00
             -0.576199278974536E+00
             -0.728827197991766E+00
             -0.752294320575868E+00
             -0.557851656802318E+00
              0.431408243951666E+00
              0.479470007846525E+00
              0.426131886377745E+00
              0.108855250782334E+01
              0.812561304171187E-01
              0.352614043609607E+00
             -0.841166480263613E+00
              0.268708928308321E-01
             -0.219292142098987E+00
             -0.407947313428270E+00
             -0.121062286704273E+00
              0.484397471844118E+00
              0.561140570058632E+00
             -0.448411261168648E-01
              0.197855431829167E+00
              0.400986641045899E+00
              0.496318474780881E+00
             -0.338586099652302E+00
             -0.134229305985322E+00
              0.328478301755819E-02
             -0.388896951104963E+00
             -0.380221833573593E-01
             -0.618844563346254E+00
              0.116921627001891E+01
              0.902867468081723E+00
             -0.280495590274963E+00
              0.258943787198796E+00
             -0.924671839775317E-01
             -0.490981956778779E+00
              0.561050843029530E+00
             -0.136738638440821E+00
              0.537848462338836E+00
             -0.691534253858076E+00
              0.254748035745951E+00
             -0.109193059215890E+00
             -0.782669378604047E+00
             -0.346780893233365E+00
              0.344948660396093E+00
             -0.146828357836952E+01
              0.561089562776538E+00
              0.680384357142731E+00
             -0.154328019900040E+00
             -0.109220675936502E+00
             -0.526780586598945E-01
              0.397595482139504E+00
             -0.499984680671046E+00
              0.451121912445482E+00
              0.482789397157648E+00
             -0.130976132679104E+01
             -0.542684989910848E+00
              0.357157571228824E+00
             -0.188878746002575E+00
              0.746482236692609E+00
             -0.920105025999470E+00
             -0.163252982597085E+00
             -0.578718483871120E+00
             -0.193820281720284E+01
              0.116928474418012E+01
             -0.881976845407514E+00
             -0.100586655569610E+01
              0.907639688419977E-01
              0.190911364953732E+01
              0.110475418385660E+00
             -0.507176252867890E+00
             -0.213475082236876E-01
             -0.505943263490174E-01
             -0.125710519084655E+01
             -0.804002016474206E+00
              0.127877738130863E+01
             -0.194329312826491E+00
             -0.519326384541750E+00
              0.710763573493590E+00
             -0.481274763798420E+00
              0.484639295504921E+00
              0.703077025639665E+00
             -0.766985651438798E+00
             -0.424545815770785E+00
             -0.465916397506704E+00
             -0.265850472501190E+00
             -0.291924637467112E+00
             -0.296499632831045E+00
              0.295316640374288E+00
             -0.527727366970133E+00
              0.405382880626761E+00
              0.800899321364171E+00
             -0.748629347793734E-01
             -0.312090552698888E+00
              0.229481029127140E+00
              0.798084191203213E+00
              0.821207294104897E+00
              0.173536269992705E+00
             -0.174949271003207E+00
             -0.178939224568703E+00
             -0.793090148850965E+00
              0.605922816559794E+00
             -0.366537187828286E+00
              0.343281100902363E+00
             -0.187422755896765E+00
              0.373328318060578E+00
              0.254858159670229E+00
             -0.121594509780046E+01
             -0.369784278528769E+00
             -0.115891395229610E+01
             -0.606497405971760E+00
              0.594768725604027E-01
             -0.292737968520701E+00
              0.525373685944212E+00
             -0.417054847235251E+00
              0.539009755893656E-01
              0.102382719221549E+00
              0.102400000668247E+01
              0.531272591909564E+00
             -0.493582417408287E+00
             -0.430410425905281E-01
              0.233968108277173E+00
              0.541453371797878E+00
             -0.521804107478996E-02
              0.847212700352360E+00
              0.408499262611486E+00
              0.132996890965686E+01
              0.515255717291676E-01
              0.907514646741888E+00
             -0.403945476564045E+00
             -0.576596805258529E+00
              0.241508720904884E-01
              0.170516458478792E+00
              0.321689985985121E+00
             -0.333092907240124E+00
             -0.154645450610933E+00
              0.340890159465931E+00
             -0.707728810448413E+00
             -0.893630269651734E+00
              0.117651505314784E+01
             -0.893273648912949E-01
             -0.532343853528185E+00
             -0.850140985666421E-01
             -0.205348282119740E+00
              0.670765368584401E+00
              0.534058442710123E+00
             -0.298894312620354E+00
             -0.179714847271550E-02
             -0.379738338279991E+00
             -0.532705858697335E+00
             -0.344669483881981E+00
             -0.144217061814878E+01
              0.322261177769509E-01
             -0.948024363080913E+00
             -0.874590670254364E+00
             -0.541781822357249E+00
              0.337297351527690E+00
             -0.564998462384836E+00
              0.362888455873433E+00
             -0.969658873632826E+00
              0.300213681527861E-02
             -0.625392242971896E+00
              0.114236007312870E+00
              0.112149459895893E+00
              0.537708414730584E+00
             -0.309370368755590E+00
             -0.283307079870978E+00
              0.481605368752107E+00
              0.880305522704506E+00
              0.477411398788302E+00
              0.164237512143782E+00
             -0.110875730989479E+01
             -0.241853894281280E+00
             -0.402699492371435E+00
             -0.909249400845664E+00
              0.636087666919485E+00
             -0.510535741646311E+00
             -0.113799770687968E+00
             -0.422753591791447E+00
             -0.145640278754105E+01
              0.837310102821482E+00
             -0.278188032543667E+00
              0.566632880803014E+00
             -0.110065492184501E+01
              0.969224948031884E+00
              0.914103636654717E-01
             -0.370808680707685E+00
              0.160934503425130E+00
             -0.284094813727495E+00
             -0.911840900344786E+00
              0.261751872160438E+00
              0.604578184318578E+00
             -0.277770461600371E-01
             -0.508375309668114E+00
             -0.241366880898392E+00
              0.317380299690377E+00
              0.555796622589023E+00
              0.907870510644377E+00
              0.325405316187311E+00
             -0.340723089228994E+00
              0.150234870293781E+01
              0.296206031996894E+00
              0.714278221390152E+00
             -0.241772193427241E+00
              0.438697230590803E+00
              0.364456129387731E+00
             -0.911032277312271E+00
             -0.332219654392064E+00
             -0.596731522803392E+00
             -0.632018858705020E+00
             -0.181589044967366E+00
             -0.111253127423693E+00
             -0.703709793834083E+00
             -0.163160083548600E+01
             -0.393152589269811E+00
              0.197323172276025E+00
              0.853351633958059E-01
              0.245790686217654E+00
              0.578136747736591E+00
              0.144405703317779E+00
              0.458799432709396E+00
             -0.646664752996849E+00
              0.631567861253059E+00
             -0.566749018439666E+00
             -0.970886816654263E+00
              0.305848088661808E+00
             -0.626310512553749E+00
             -0.584090714956484E+00
             -0.234992954680278E+01
             -0.101873823309704E+00
              0.125027006490057E+01
              0.585844716739536E+00
             -0.149332962486173E+00
             -0.158265921300738E+00
              0.673953937510986E+00
              0.936419820248823E+00
             -0.574900703356028E+00
             -0.191941684615192E+00
             -0.541780874440673E+00
             -0.484652279568758E+00
             -0.428292556289170E+00
              0.148377550545856E+00
              0.101420928349763E+01
             -0.964098682767636E+00
             -0.808488408683965E+00
              0.582642120022516E-01
             -0.227340211518015E+00
             -0.261953490499710E+00
             -0.130519414203660E+01
              0.940223702982387E+00
              0.280449834470943E+00
              0.136516942019353E+00
              0.768761131066767E+00
             -0.487797207459439E+00
              0.502067177670902E+00
              0.426443684759486E+00
              0.176702694219184E-01
             -0.129034220780943E+00
              0.115045544978869E+00
             -0.232032009283864E+00
              0.784010482650292E+00
             -0.575452131897515E+00
              0.689690174791936E+00
              0.140426012452800E+00
              0.264519099899284E+00
              0.282273467145091E+00
             -0.119192390847266E+01
              0.156984137639594E+00
             -0.988908396104411E+00
             -0.706640570716858E+00
             -0.699943374433037E+00
             -0.790531959224723E+00
             -0.150620541294799E-02
              0.289127303399852E+00
              0.735685735483441E+00
              0.101050559674740E+00
              0.222693011956422E+00
             -0.101673748942019E+01
             -0.415224945265188E+00
              0.476900252975929E+00
             -0.678338189081585E-01
             -0.601015947218548E-01
             -0.147356104081169E+00
              0.520128065486591E+00
             -0.133540960465804E+01
              0.199859654825064E+00
              0.296785508874281E+00
              0.567807949210835E+00
              0.541895523795548E+00
             -0.831729325003470E+00
              0.250798506744363E+00
              0.105722543692947E+00
              0.112890028900327E+00
              0.966991272328199E-01
             -0.294406861511949E+00
             -0.660141421330187E+00
              0.267054018153866E+00
              0.845682061035285E+00
              0.183024615949279E-02
              0.210380157910767E+00
              0.177216986469007E+00
             -0.468016422244796E+00
             -0.496548667143741E+00
             -0.182269779884575E+01
             -0.559532690793247E+00
             -0.887994671605186E+00
             -0.922655263916017E-01
             -0.101721295059322E+01
              0.111126814932121E+01
             -0.505285635118824E+00
             -0.812056423791136E+00
             -0.230506296113724E+01
              0.992119305546355E+00
              0.222393081691860E+00
              0.171729949420660E+00
             -0.894946003665948E+00
              0.574295446181265E-01
             -0.245661908215510E+00
             -0.455305289499963E+00
              0.115725338858773E+00
              0.478946210149196E+00
              0.707712733161825E-01
             -0.316128685428151E+00
              0.718085903413623E-01
              0.235997726753396E-01
              0.133726729738865E+00
             -0.100021862219313E+01
              0.109283408700951E+01
             -0.608636862587060E+00
             -0.392366001453709E+00
             -0.788681051089696E+00
             -0.164105386022141E+01
              0.609556872290813E-01
             -0.859913402323234E+00
             -0.257776342389560E+00
              0.446870171468289E+00
             -0.403976141586591E+00
             -0.189787007696316E+00
             -0.198368603809863E+00
             -0.279240643486539E+00
              0.537414293259240E-01
              0.765269077606842E+00
             -0.738313417257451E+00
              0.156165842560512E+01
             -0.383837785515694E+00
              0.470457557889942E+00
             -0.290547853391999E+00
              0.170311747645047E+00
             -0.174804173523723E+00
              0.646217567365047E+00
              0.923542564136959E+00
              0.263901187528808E+00
              0.632724479820298E+00
             -0.413693480275358E+00
             -0.119565030558016E+00
             -0.351245570344719E+00
              0.929361724698942E+00
              0.807151020288309E+00
              0.583095427250141E+00
             -0.192085165022940E+00
             -0.368766179761347E+00
              0.350942562816332E+00
             -0.433765126314972E+00
             -0.217013048145294E+00
             -0.819674340603658E-01
             -0.543752136525172E+00
              0.714504217597941E+00
             -0.173190036713654E+00
              0.521622827912009E+00
              0.344661404751325E+00
              0.217136965404704E+00
             -0.495945801089340E+00
              0.353059709330011E+00
             -0.193435871365759E+00
             -0.994579911834883E-01
             -0.877498767093776E-02
             -0.701207094043411E+00
              0.113571251200085E+01
             -0.389509411049592E+00
              0.113387208718976E-01
              0.375061127477548E+00
              0.314128013280150E+00
              0.115055894972311E+01
             -0.332488138522686E+00
              0.110196491753356E+01
              0.981298347384954E+00
             -0.136715264779694E+01
              0.938546601103842E-01
             -0.260472495624114E+00
              0.177773160386430E+00
              0.598767594044931E-01
              0.324656119598178E+00
              0.950077056937821E+00
              0.148656694818244E+01
             -0.106974272742270E+01
              0.111480834386927E+01
             -0.150028230822730E+01
             -0.129093628077545E+01
             -0.227481844952558E+00
              0.191847341698153E-01
              0.118314579464660E+01
              0.460775332508510E+00
             -0.178656915617365E+00
             -0.120900948201428E+01
              0.980214513453415E+00
             -0.599143821968489E+00
              0.348603475907510E-01
             -0.780409887463918E-01
              0.192505737965913E+01
             -0.316630613602091E+00
             -0.154855047028662E+01
              0.447547934447620E+00
             -0.239283206761957E+01
              0.192601850677890E+00
             -0.573306692591275E+00
             -0.256917484585530E+00
             -0.373428574589817E+00
             -0.877092370152573E+00
              0.526282085484731E+00
             -0.538549210127459E+00
             -0.213764215568779E+00
             -0.111093268387034E+01
             -0.543946570711764E-01
             -0.812249201633539E+00
             -0.113654304999935E+01
             -0.153019853376992E+01
              0.114919050303392E+00
             -0.558441787991977E+00
              0.173360149175464E+00
             -0.202192809106280E+00
             -0.123282730433847E+01
             -0.952021474345642E+00
             -0.845689126614190E+00
             -0.875343560663948E+00
              0.765316793763679E+00
              0.746821828245978E-01
             -0.732759366663156E+00
             -0.374527500502587E+00
             -0.419856517030158E+00
              0.623371970104025E+00
             -0.442450837604290E+00
             -0.470771577900950E-01
             -0.483216149392034E+00
             -0.585452980974619E+00
             -0.623150321850528E+00
              0.596856850663629E+00
             -0.174063025016675E+00
             -0.135900484320742E+01
              0.113993666354317E+01
              0.656190395755374E+00
              0.334931811415977E-01
             -0.121344389379596E+01
             -0.109637343965884E+01
              0.696856520282427E-01
              0.685464768828759E-02
             -0.512624012563736E+00
             -0.637863750957700E+00
              0.431524060478449E+00
             -0.646779784359639E-01
              0.401716800575556E+00
              0.697306436305828E+00
              0.518727830246641E+00
              0.346612236246232E+00
              0.311662277795696E+00
             -0.334654896388812E+00
             -0.232791357118301E+00
             -0.271155271864384E+00
             -0.570547596285418E+00
             -0.689248218623018E+00
             -0.881072392909469E+00
             -0.517719208450679E+00
             -0.189340542094587E+00
             -0.107751115859289E+01
             -0.274665264709002E+00
              0.540985656624340E+00
             -0.128093000453033E+01
              0.560631748457844E+00
              0.457100123521139E+00
             -0.107124295400715E+01
             -0.815300266706843E+00
             -0.352838171038503E+00
              0.162326554407034E+00
             -0.609552029756328E+00
              0.112264565705268E+01
              0.989339294847805E+00
             -0.114392785940800E+01
              0.589517588583016E+00
              0.533495007540684E+00
              0.153278991337654E+00
              0.258813791214753E+00
             -0.630132669549356E+00
             -0.235164074807778E+00
              0.104860398854196E+00
              0.308961807657009E+00
              0.599226417807460E+00
             -0.804358885570503E+00
             -0.180042058214171E+00
              0.227368671343254E+00
              0.174407994630309E+00
             -0.528306635911809E+00
              0.274528065432351E+00
             -0.361531167969203E+00
             -0.264051116280990E+00
             -0.253092081732635E-01
             -0.913511645282268E+00
             -0.141104023912777E-01
             -0.985029031755893E-01
             -0.232956926461380E+00
              0.264414311223948E+00
             -0.768196365236482E+00
              0.873600340241249E+00
             -0.310475729791583E+00
             -0.199980419638434E+01
             -0.127018174370032E+01
              0.504516101661388E+00
             -0.634620038284674E+00
             -0.327914788914128E+00
             -0.333070341500860E+00
             -0.289227610865202E+00
             -0.154357632645826E+01
              0.615555747564756E-02
             -0.911833387120025E+00
             -0.503142171591108E+00
              0.279050373740750E+00
              0.118840781421445E+01
              0.797699808248237E-01
              0.510096060223846E-01
              0.893892300615953E+00
             -0.876733709821780E+00
              0.394330939290667E+00
              0.776196403834142E-01
             -0.805178113642675E+00
             -0.480999081628854E+00
              0.278967513192575E+00
              0.493174468296407E-01
              0.262473818885628E+00
              0.202234689393307E+00
             -0.346492658897487E+00
             -0.501322175159276E+00
             -0.728749682463478E+00
              0.739832514648742E+00
             -0.101647244835886E+01
             -0.749427219535578E+00
              0.220993334889118E+00
             -0.123611046289574E+01
              0.357440110658177E+00
              0.885291781700929E+00
             -0.189257794793958E+00
              0.316738592882689E+00
             -0.519001037539051E+00
             -0.331859214298843E+00
              0.159012170505966E+00
              0.531854446158815E+00
             -0.532040183116776E+00
              0.313671726654096E+00
             -0.212265460832381E+00
              0.138133387667701E+00
              0.259849934275877E+00
              0.126265259296972E+00
             -0.197570419592331E+00
             -0.105230638436922E-01
              0.152913627495050E+00
              0.412173613789250E+00
             -0.104047449677967E+01
             -0.461838781522665E-01
              0.773322942250297E+00
             -0.128207099360018E+01
              0.487020859674506E+00
             -0.166690955878669E+01
             -0.176972674118695E+00
             -0.207078453428601E+00
             -0.264670844042758E-01
             -0.195709020540271E+00
             -0.413177843271029E+00
             -0.172063834867883E+00
              0.166318385486287E+00
             -0.383501493624570E+00
              0.155914496719563E+00
              0.134929443357494E+01
             -0.823948465030131E+00
             -0.370522485519188E+00
              0.630010670887894E+00
              0.301045387732149E+00
              0.637147481814198E+00
              0.310340074160520E+00
              0.222334060059617E+00
             -0.203951119305262E+00
             -0.729738810446575E+00
             -0.671565179751402E+00
             -0.545076548741535E+00
              0.105057905160664E+00
             -0.624386144203580E+00
             -0.164784867840010E+00
              0.867470629307769E-01
              0.366039785434323E+00
             -0.922134591403656E-01
              0.880050164514241E+00
             -0.100072236677950E+01
             -0.635331128508110E-02
             -0.117677425016308E+00
              0.471744808438116E+00
             -0.623759761557519E+00
             -0.411140174061015E+00
              0.165375376477715E+00
              0.655130127659226E+00
              0.112981461805611E+01
              0.434093700988762E+00
              0.689706643376278E+00
             -0.354720456724636E+00
              0.930482256831901E+00
              0.931286970330683E+00
             -0.504208555554975E-02
              0.424731554023331E+00
              0.552463304061827E+00
             -0.295806547241125E+00
              0.239129374825445E+00
              0.972868423300022E+00
             -0.299321265657373E+00
             -0.817716006893399E-01
             -0.925599814623032E+00
              0.314037450274156E+00
             -0.237940452647159E+00
              0.328059208508748E+00
              0.620060155284685E-02
             -0.574384464742218E+00
              0.673928689647607E+00
              0.576037755283938E+00
             -0.474720872751950E+00
              0.252805776901552E+00
             -0.887776245966277E+00
             -0.807537713811371E+00
              0.369416929996308E+00
             -0.100612479131713E+01
             -0.522798037824858E+00
             -0.664082624708762E-02
              0.127892203392909E+01
             -0.329902892059118E+00
             -0.166060557065389E+00
             -0.316401504206864E+00
              0.164523235306183E+01
              0.280399283399730E+00
             -0.624654638999176E+00
              0.105347561522623E+01
              0.920618272263125E+00
              0.493173717146885E+00
              0.119187240141145E+01
              0.130286556324775E+01
             -0.361891353844390E-01
             -0.420817925727335E+00
             -0.359564582256322E+00
              0.411541537993268E+00
              0.572807455384126E+00
             -0.113277519852335E+00
             -0.363324943651209E+00
             -0.837388049193502E+00
             -0.284637544116068E+00
             -0.686867036197713E+00
              0.503238363977144E+00
              0.265410041149085E+00
              0.892889110759196E+00
              0.212414384996729E+00
             -0.331831253764125E+00
             -0.128367925220504E+00
              0.586283629977922E+00
              0.144886037236606E+00
              0.928484341162335E+00
              0.811027607297964E+00
             -0.114436405337389E+00
             -0.136306840318108E+00
             -0.151707804230470E+01
              0.718943341449853E+00
              0.118388455708089E-01
              0.861060677229757E+00
             -0.395043398270200E+00
             -0.995071989855933E+00
              0.282717104114929E+00
              0.108579375652683E+01
             -0.377792987341760E+00
              0.969276244036678E+00
             -0.105965092314046E+01
             -0.388674692264229E+00
             -0.127554042834102E+01
              0.223446977881675E+00
              0.517716691175645E-01
              0.144920973289954E+00
             -0.921898911985249E+00
              0.138339578791044E+01
              0.800747168293030E+00
              0.813509141808915E-01
             -0.827110521019223E+00
              0.299577952149209E+00
             -0.250816331078641E+00
             -0.231772177266718E+00
             -0.413102214352583E+00
              0.239177162936078E+00
             -0.270067858937795E+00
             -0.268593302345403E+00
              0.356645872035685E+00
              0.341317901030905E+00
             -0.133601623258103E+01
              0.286424260248571E+00
              0.972311633785425E+00
              0.622250602694151E+00
             -0.189549708438059E+00
             -0.398628719084120E-01
             -0.545946708269463E+00
              0.820026565013137E+00
              0.115776903532247E+00
             -0.353848995256945E-01
             -0.864716375871204E-01
              0.160268844403403E+01
             -0.127775369791593E+00
              0.313488111529984E+00
              0.110681563615658E+01
              0.141614055583471E+01
              0.873402063883094E+00
              0.569810644361213E+00
             -0.949978348239524E+00
             -0.692053927161056E+00
              0.536954632084949E+00
              0.893844794156209E-01
              0.452043914731159E+00
              0.170071555329437E+00
              0.971041823123814E+00
             -0.117838833706585E+01
             -0.719046565134803E+00
             -0.181186299410704E+00
             -0.128774502407987E+01
              0.284455245034966E+00
              0.700680996687784E+00
             -0.244795696199764E-01
             -0.296783460018445E+00
              0.301107865508843E+00
              0.196844709045820E+01
              0.489496168412196E+00
              0.265550495762700E+00
             -0.689510590211107E+00
             -0.836250482532625E+00
             -0.195804362330765E+00
              0.424686167682338E+00
             -0.899018224225214E-01
              0.404791815072480E+00
              0.522908476820851E+00
             -0.896311364109724E+00
              0.407330067451594E+00
              0.450674546001771E+00
              0.822260742554074E+00
             -0.155697045607570E+00
              0.902272421247776E-01
             -0.101719290870729E+00
             -0.646039007871880E+00
             -0.109112024491241E+01
              0.110222922731588E+01
             -0.154363249473568E+00
             -0.766045152552738E+00
              0.133965147110793E+00
             -0.466589007177131E+00
              0.124872443570820E+01
             -0.336129653689195E+00
             -0.562969928542895E+00
              0.562875441893134E+00
             -0.233787393399905E+00
              0.694210093791994E+00
              0.564209800057918E-01
              0.134253646358845E+01
              0.777499355580757E+00
              0.209601137964724E+00
             -0.588685574969876E+00
              0.432856674069394E+00
             -0.794305379702082E+00
             -0.483938822008665E-01
              0.958353284394878E+00
             -0.368619870272835E+00
             -0.629301944243097E+00
             -0.338846118569109E+00
              0.752550773996810E+00
              0.161576030575370E+00
             -0.119199594340660E+01
              0.516996533308839E+00
              0.763435821579259E-01
              0.176531297098874E+00
             -0.712847614478916E+00
              0.165906345269487E+00
              0.503662947090301E+00
              0.662740650852258E+00
              0.967091611308035E+00
              0.538372417360118E+00
              0.113625484103745E+00
             -0.829954075155866E+00
             -0.608553489369125E+00
             -0.925329565790585E+00
             -0.228293634224142E+00
              0.514298606837704E+00
             -0.429974058034688E-02
              0.758127632302035E+00
             -0.472642796075653E+00
              0.243062352713008E+00
             -0.371448951161156E+00
             -0.395705602053419E+00
              0.871305273300652E+00
              0.752862877288196E-01
              0.924399647081331E+00
              0.881433436310406E-01
              0.275451899562066E+00
             -0.225708368881143E+00
              0.876967130225914E+00
             -0.260256957913705E+00
              0.517034660689056E-02
             -0.114826612729023E+01
             -0.969852325030711E-01
              0.101637098601470E+01
              0.937749113152849E+00
              0.367954805727491E+00
             -0.228939185150920E+00
              0.853899604739281E-01
             -0.363020149042538E+00
             -0.320824662666686E+00
              0.132374107387825E+01
              0.126276929836154E+00
             -0.439316992476547E+00
             -0.154967106947402E+01
             -0.596870589896783E+00
             -0.562179731274913E+00
             -0.878511566116529E+00
             -0.888521024122381E+00
             -0.104001950421836E+01
             -0.660459928968832E+00
             -0.383687899621027E+00
             -0.705744932056205E+00
              0.645194458881433E+00
             -0.235184784003927E+00
             -0.120150014351474E+01
              0.616454177928525E+00
             -0.510739288107348E+00
             -0.115627482463855E+01
              0.148894287415416E+01
             -0.381033079714642E+00
              0.206333894874218E+00
              0.547865020241130E+00
              0.236315257334474E+00
              0.387984073478970E+00
              0.178469005709614E-01
              0.222004539636118E-01
             -0.195424711532688E+00
             -0.109413662498969E+01
              0.160940930501603E+00
             -0.174057337229572E+01
              0.109039465356838E+01
             -0.585947380860162E+00
             -0.283712345062797E+00
             -0.308319082389577E+00
              0.356164131823614E+00
             -0.226247385086411E+00
              0.407933113186304E+00
             -0.866645158227464E+00
              0.529474209540756E+00
              0.652080807181976E+00
              0.106615134949017E+00
              0.143269372659647E+00
              0.321896737731888E+00
              0.154168485586696E+00
              0.432865390101957E+00
             -0.566143435730697E-01
             -0.113121163099749E+01
              0.142814899648296E+00
             -0.534828710342872E+00
             -0.466831593720558E-01
              0.846182357909425E+00
             -0.117258073442324E+01
              0.437475274797059E-01
              0.588189995564221E-01
              0.141786756199965E+00
              0.440041794921413E+00
             -0.184024168622074E+00
              0.123320999051413E+01
              0.508511924569388E+00
             -0.201156324250338E+00
             -0.115508184667938E+00
              0.104639667517260E+00
              0.115335289898944E+01
             -0.702528270054541E+00
             -0.148024195930395E+01
              0.434706679375093E+00
             -0.114549585445852E+00
             -0.246743836400700E+00
              0.288245816025344E+00
              0.110137605247650E+01
              0.599220062898384E+00
             -0.249518967442855E+00
             -0.807500673188116E+00
             -0.203284363788628E+00
              0.397596105014242E+00
             -0.277738107703685E+00
             -0.112550886133439E+01
             -0.157783423520715E+00
             -0.145457574137335E+01
             -0.766096686274758E+00
              0.130602298106104E+01
             -0.778758638939552E+00
             -0.106724340675656E+01
             -0.788669698274552E+00
             -0.600748204403525E+00
              0.515741624067702E+00
              0.126444788317897E+01
             -0.163055544965576E+00
              0.387410102046060E+00
             -0.310692765579591E+00
             -0.998694241725987E+00
              0.776672137075946E+00
             -0.725686001563448E+00
              0.353418893704349E+00
              0.396165006957400E+00
             -0.253122311333842E+00
              0.529534001015031E+00
              0.551744021190063E+00
              0.182086026890835E+01
             -0.136555286515398E+00
             -0.865488971153654E+00
             -0.985170576689616E+00
             -0.291281598115405E+00
             -0.660918730386626E+00
              0.134981780464618E+01
             -0.675460749204154E+00
              0.147697966213088E+00
              0.178291074417203E-01
             -0.269450808009679E+00
             -0.128858004644025E+01
             -0.100001747888230E+00
              0.148959231209269E+01
              0.352196429906042E+00
              0.107911212133467E+00
             -0.886537992829118E+00
             -0.785623193636921E+00
             -0.287666831505715E+00
              0.656256166527950E+00
             -0.407222833434803E+00
              0.146872470147669E+01
             -0.723879349874371E+00
              0.289327980183221E+00
             -0.170339571315662E+00
             -0.892509751759440E+00
              0.108672579688550E+00
             -0.846500923381839E+00
             -0.108819656170192E+01
              0.175182634671206E+00
              0.146455078425354E-01
              0.719714931463902E+00
              0.413635964512529E+00
             -0.525501654303228E+00
              0.319096903721231E+00
             -0.133099796801312E+01
             -0.679608468706350E+00
              0.137826036927444E+01
              0.198003432619014E-01
             -0.516355599415981E-01
             -0.345005288308192E+00
             -0.169679408200984E-02
             -0.190812260281771E+00
              0.138948111635372E+01
              0.614897502615573E+00
             -0.105340365865204E+00
              0.259043360197939E-01
             -0.555185668276940E+00
             -0.163174405553332E+00
             -0.898480873232785E+00
              0.780408395256003E+00
              0.100853450653612E+00
              0.994148354262139E-01
              0.289153592000423E+00
             -0.227856558072058E+00
             -0.349726737306141E+00
              0.159137398180464E+00
             -0.166334082876597E+01
             -0.136283156700007E+00
             -0.151851441465229E+00
             -0.835002666364277E-01
              0.690465359505962E+00
              0.963468958489554E+00
              0.268041223204004E+00
             -0.136964726856884E+01
              0.936726777768426E+00
             -0.363129628138910E+00
             -0.542152422153327E+00
             -0.128914227552840E+01
             -0.383702686857638E+00
              0.950465252034558E+00
              0.520204103623655E+00
              0.270110432610435E+00
              0.530921433374152E+00
             -0.821691583611677E+00
             -0.736011592090018E+00
              0.947308939094699E+00
              0.619581311034414E+00
              0.678247675796780E+00
              0.157727332686617E+00
              0.168716876668503E+00
              0.775507875572123E+00
              0.145883548799860E+01
             -0.241482203641912E+00
              0.607433160510563E+00
             -0.476607451358543E+00
             -0.654186943387803E+00
             -0.519256273278106E+00
             -0.509649156898506E+00
             -0.206819340904657E+00
             -0.690410070720008E+00
             -0.269271989675687E+00
             -0.188632550179378E+01
              0.462529965648075E+00
              0.438880894971723E+00
             -0.499705720815532E-01
             -0.534499013671633E+00
             -0.256963298570795E+00
             -0.840675045729204E+00
              0.749835915832584E-01
              0.116438721694905E+01
             -0.271583440963768E+00
             -0.287092205151543E+00
              0.271924219731648E+00
             -0.763317928349764E+00
              0.126554064012388E+01
              0.226797918551592E+00
              0.607815288575155E-01
              0.766234886861921E+00
             -0.114634434636207E+00
              0.874711320006647E+00
              0.308365662132929E+00
             -0.932140020479366E-02
              0.206628402546475E+00
             -0.178328111861417E+00
              0.980668989947003E+00
              0.106334413249088E+00
              0.335783197391392E+00
             -0.136157808659606E+00
              0.155269134122054E+00
             -0.139304251997614E+01
             -0.517509474750253E+00
             -0.742166140587246E+00
              0.735560046626460E+00
             -0.540088328052178E+00
             -0.799487356484346E+00
              0.885615455907129E+00
             -0.207236561000630E+00
              0.606102548587660E+00
             -0.131008116642850E+01
              0.246715345689684E+00
              0.437459594339278E-01
              0.101719139650273E+00
             -0.211947229435602E+00
             -0.941579522745863E-01
              0.747502335790073E+00
              0.458473746326837E-01
             -0.792938392701915E+00
             -0.338718698912511E+00
              0.252049691630073E+00
             -0.170790826535637E+01
             -0.127027940870092E+01
              0.784311864190945E-02
              0.253193921899943E+00
             -0.782621894394794E+00
              0.256902815895845E-01
              0.150524439698611E+01
              0.412156820262650E+00
             -0.793732944838913E+00
              0.108374899064523E+00
             -0.155669706975935E+00
              0.207558281282172E+00
             -0.539433277381242E+00
              0.355933131202470E+00
              0.335468003936432E+00
             -0.130391784277247E+00
              0.166783950968652E+01
             -0.445671164304264E-01
             -0.452239101403634E+00
              0.490850980458243E+00
              0.637330077383916E+00
             -0.468943742766909E+00
             -0.498407245653487E-02
              0.146201939548805E+01
             -0.169493529477638E-01
              0.753955158920724E+00
              0.251061455005555E+00
             -0.881221546347299E-01
             -0.198398929399565E+00
              0.678814091582195E+00
             -0.886885621445946E+00
             -0.293150942966887E-01
             -0.309847322358091E+00
             -0.591256641907617E+00
              0.156006970694595E+00
              0.379902884897475E+00
             -0.497016215564869E-01
             -0.264039286804616E-01
             -0.620063770003404E+00
              0.203588622767069E+00
             -0.195363754077522E-01
             -0.309209463509231E+00
             -0.292631658318116E+00
              0.234929446913605E+00
              0.605991990843435E-03
             -0.580837791642715E+00
             -0.159907804009426E+01
              0.918942647467511E-01
              0.198961225226221E+00
             -0.730913893787043E+00
             -0.383068082684646E+00
              0.122071681680522E+01
              0.210057287202704E+00
              0.676965673549052E+00
              0.174914764389132E+00
              0.599076825712784E+00
              0.292759237272007E-01
             -0.587367985299106E+00
             -0.209441918138959E+00
              0.698076249162245E-01
              0.472632301605164E+00
              0.108282576315839E+01
              0.727452395477334E+00
              0.502858075565769E-01
              0.164242931111306E+00
              0.901124297607560E+00
              0.423464905842889E+00
             -0.101382050094141E+01
             -0.415256511835441E+00
              0.157833970075542E+00
              0.154571243969595E+00
              0.366033310520343E+00
             -0.751766291767381E+00
              0.478918755697841E-01
              0.625160620087907E+00
              0.714599871012741E+00
             -0.616089460642171E+00
              0.681432306905503E-01
             -0.371718029705423E-01
             -0.327287789214235E+00
             -0.342903098671969E+00
             -0.147678346428617E+00
             -0.217089168614711E+00
              0.179197115223761E+00
              0.624401328724752E+00
             -0.479184483629794E+00
              0.120460153674222E+01
              0.486145616018376E+00
              0.398711896563412E+00
              0.570154034286928E+00
              0.344593235056571E+00
              0.536767542108519E+00
              0.823105571525212E+00
             -0.709650390453589E+00
              0.932835067494037E+00
             -0.169675383674038E+01
              0.464944465016001E+00
             -0.154469441515518E+01
              0.117898740314421E+01
              0.117582368888833E+01
             -0.112983370095031E+00
             -0.686272385819166E+00
             -0.643708923946166E+00
             -0.781376421419733E+00
             -0.982359930980948E+00
              0.807889225340650E+00
              0.632722264803994E+00
              0.357920914973797E+00
              0.355786878325139E+00
              0.678715836384366E+00
             -0.613720777133832E+00
             -0.200258925321670E+00
              0.782826300433816E+00
             -0.184368538926949E+00
              0.731614422109128E+00
              0.116133368137637E+01
             -0.563606044048883E-01
             -0.112974515678327E+01
              0.106131682855382E+00
              0.252313748065114E-01
             -0.154664741282439E+00
              0.483998073507155E-01
             -0.952183550929831E+00
             -0.892040566888035E-01
              0.227921473497010E+00
              0.233543046037915E+00
              0.746075183715607E+00
             -0.626673799250510E+00
              0.731765322906874E+00
             -0.559662478543981E+00
              0.421483805038486E+00
              0.659774517291067E+00
 
 BEEF-vdW xc energy contributions
           1 :   -10.1748909313684     
           2 :    8.19191572829213     
           3 :   -5.39904223011607     
           4 :    2.86387133633353     
           5 :   -1.04886943287383     
           6 :   6.523624638248293E-004
           7 :   0.429608933608179     
           8 :  -0.477131284282136     
           9 :   0.373836446555922     
          10 :  -0.289041174051548     
          11 :   0.286540141924384     
          12 :  -0.338644392219233     
          13 :   0.379723300881658     
          14 :  -0.363439348857657     
          15 :   0.279220147713858     
          16 :  -0.152242979984875     
          17 :   2.793255678090212E-002
          18 :   5.148221553080212E-002
          19 :  -7.238346622477287E-002
          20 :   5.094041605590682E-002
          21 :  -1.828502780311148E-002
          22 :  -1.258536949723776E-003
          23 :   4.758116266554424E-004
          24 :   9.864909238208597E-003
          25 :  -1.185601851883078E-002
          26 :  -7.195332486739758E-003
          27 :   4.537371824667957E-002
          28 :  -8.852442308909758E-002
          29 :   0.118199533517584     
          30 :  -0.122552162572614     
          31 :   -1.42540551082637     
          32 :  -0.862299768788990     

     Writing output data file ./pwscf.save/
 
     init_run     :     65.85s CPU     68.46s WALL (       1 calls)
     electrons    :    498.30s CPU    542.92s WALL (       1 calls)
     forces       :     26.61s CPU     28.96s WALL (       1 calls)

     Called by init_run:
     wfcinit      :      1.62s CPU      1.68s WALL (       1 calls)
     potinit      :     55.78s CPU     57.76s WALL (       1 calls)
     hinit0       :      6.92s CPU      7.05s WALL (       1 calls)

     Called by electrons:
     c_bands      :     75.52s CPU     76.31s WALL (      15 calls)
     sum_band     :     33.42s CPU     39.07s WALL (      15 calls)
     v_of_rho     :    313.10s CPU    342.68s WALL (      16 calls)
     newd         :     14.32s CPU     20.20s WALL (      16 calls)
     PAW_pot      :      1.44s CPU      1.44s WALL (      16 calls)
     mix_rho      :    110.78s CPU    115.72s WALL (      15 calls)
     vdW_kernel   :     33.89s CPU     33.89s WALL (       1 calls)

     Called by c_bands:
     init_us_2    :      1.27s CPU      1.29s WALL (      31 calls)
     regterg      :     73.22s CPU     74.00s WALL (      15 calls)

     Called by *egterg:
     rdiaghg      :      0.02s CPU      0.02s WALL (     122 calls)
     h_psi        :     66.34s CPU     66.35s WALL (     123 calls)
     s_psi        :      1.71s CPU      1.71s WALL (     123 calls)
     g_psi        :      0.23s CPU      0.24s WALL (     107 calls)

     Called by h_psi:
     h_psi:calbec :      1.32s CPU      1.32s WALL (     123 calls)
     vloc_psi     :     63.01s CPU     63.01s WALL (     123 calls)
     add_vuspsi   :      1.66s CPU      1.66s WALL (     123 calls)

     General routines
     calbec       :      1.58s CPU      1.59s WALL (     142 calls)
     fft          :    273.50s CPU    273.51s WALL (    2873 calls)
     ffts         :     47.88s CPU     47.88s WALL (     521 calls)
     fftw         :     59.16s CPU     59.16s WALL (     637 calls)
 
     Parallel routines
 
     PWSCF        :  18m50.69s CPU  20m41.53s WALL

 
   This run was terminated on:  16:42: 5  20Dec2022            

=------------------------------------------------------------------------------=
   JOB DONE.
=------------------------------------------------------------------------------=
