
     Program PWSCF v.6.7MaX starts on  4Jan2023 at  9:59:31 

     This program is part of the open-source Quantum ESPRESSO suite
     for quantum simulation of materials; please cite
         "P. Giannozzi et al., J. Phys.:Condens. Matter 21 395502 (2009);
         "P. Giannozzi et al., J. Phys.:Condens. Matter 29 465901 (2017);
          URL http://www.quantum-espresso.org", 
     in publications or presentations arising from this work. More details at
     http://www.quantum-espresso.org/quote

     Parallel version (MPI), running on     1 processors

     MPI processes distributed on     1 nodes
     Reading input from chch2c-gas-ensemble.in
Warning: card &CELL ignored
Warning: card / ignored

     Current dimensions of program PWSCF are:
     Max number of different atomic species (ntypx) = 10
     Max number of k-points (npk) =  40000
     Max angular momentum in pseudopotentials (lmaxx) =  3
     file C.pbe-n-kjpaw_psl.1.0.0.UPF: wavefunction(s)  2S 2P renormalized
     file H.pbe-kjpaw_psl.1.0.0.UPF: wavefunction(s)  1S renormalized

     **************************************************************************
     Initializing libbeef V0.1.2 with the BEEF-vdW functional.
     Citation: Wellendorff et al., PRB 85, 235149 (2012).
     **************************************************************************


     IMPORTANT: XC functional enforced from input :
     Exchange-correlation= BEEF-VDW
                           (   1   4  43  14   2   0   0)
     Any further DFT definition will be discarded
     Please, verify this is what you really want


     gamma-point specific algorithms are used

     Subspace diagonalization in iterative solution of the eigenvalue problem:
     a serial algorithm will be used

 
     G-vector sticks info
     --------------------
     sticks:   dense  smooth     PW     G-vecs:    dense   smooth      PW
     Sum       34011   34011   8495              4675985  4675985  584469
 


     bravais-lattice index     =            0
     lattice parameter (alat)  =      43.1388  a.u.
     unit-cell volume          =   74473.1859 (a.u.)^3
     number of atoms/cell      =            6
     number of atomic types    =            2
     number of electrons       =        15.00
     number of Kohn-Sham states=           12
     kinetic-energy cutoff     =      60.0000  Ry
     charge density cutoff     =     240.0000  Ry
     scf convergence threshold =      1.0E-06
     mixing beta               =       0.7000
     number of iterations used =            8  local-TF  mixing
     Exchange-correlation= BEEF-VDW
                           (   1   4  43  14   2   0   0)

     celldm(1)=  43.138842  celldm(2)=   0.000000  celldm(3)=   0.000000
     celldm(4)=   0.000000  celldm(5)=   0.000000  celldm(6)=   0.000000

     crystal axes: (cart. coord. in units of alat)
               a(1) = (   1.000000   0.000000   0.000000 )  
               a(2) = (   0.000000   0.956630   0.000000 )  
               a(3) = (   0.000000   0.000000   0.969729 )  

     reciprocal axes: (cart. coord. in units 2 pi/alat)
               b(1) = (  1.000000  0.000000  0.000000 )  
               b(2) = (  0.000000  1.045336  0.000000 )  
               b(3) = (  0.000000  0.000000  1.031216 )  


     PseudoPot. # 1 for C  read from file:
     /users/bkreitz1/quantum-espresso/potentials/C.pbe-n-kjpaw_psl.1.0.0.UPF
     MD5 check sum: a169b0ebad56f5ec0d79c4633f80bf22
     Pseudo is Projector augmented-wave + core cor, Zval =  4.0
     Generated using 'atomic' code by A. Dal Corso  v.6.7MaX
     Shape of augmentation charge: PSQ
     Using radial grid of 1073 points,  4 beta functions with: 
                l(1) =   0
                l(2) =   0
                l(3) =   1
                l(4) =   1
     Q(r) pseudized with 0 coefficients 


     PseudoPot. # 2 for H  read from file:
     /users/bkreitz1/quantum-espresso/potentials/H.pbe-kjpaw_psl.1.0.0.UPF
     MD5 check sum: ae98473e6dc62675f0d0baffdab24f65
     Pseudo is Projector augmented-wave, Zval =  1.0
     Generated using 'atomic' code by A. Dal Corso  v.6.7MaX
     Shape of augmentation charge: PSQ
     Using radial grid of  929 points,  2 beta functions with: 
                l(1) =   0
                l(2) =   0
     Q(r) pseudized with 0 coefficients 


     atomic species   valence    mass     pseudopotential
        C              4.00    12.01100     C ( 1.00)
        H              1.00     1.00800     H ( 1.00)

     No symmetry found



   Cartesian axes

     site n.     atom                  positions (alat units)
         1           C   tau(   1) = (   0.4826055   0.5117556   0.4666710  )
         2           C   tau(   2) = (   0.5417151   0.4853848   0.4969444  )
         3           C   tau(   3) = (   0.5306041   0.5105931   0.4375874  )
         4           H   tau(   4) = (   0.4380002   0.5193250   0.4792339  )
         5           H   tau(   5) = (   0.5623864   0.5116442   0.5308849  )
         6           H   tau(   6) = (   0.5444149   0.4382410   0.5035529  )

     number of k points=     1  Gaussian smearing, width (Ry)=  0.0050
                       cart. coord. in units 2pi/alat
        k(    1) = (   0.0000000   0.0000000   0.0000000), wk =   2.0000000

     Dense  grid:  2337993 G-vectors     FFT dimensions: ( 216, 216, 216)

     Estimated max dynamical RAM per process >       3.64 GB

     Initial potential from superposition of free atoms

     starting charge   14.99985, renormalised to   15.00000

     negative rho (up, down):  9.026E-03 0.000E+00


     %%%%%%%%%%%%%%%%%%%%%%%%%%%%%%%%%%%%%%%%%%%%%%%%%%%%%%%%%%%%%%%%%%%%%%%%
     %                                                                      %
     % You are using vdW-DF, which was implemented by the Thonhauser group. %
     % Please cite the following two papers that made this development      %
     % possible and the two reviews that describe the various versions:     %
     %                                                                      %
     %   T. Thonhauser et al., PRL 115, 136402 (2015).                      %
     %   T. Thonhauser et al., PRB 76, 125112 (2007).                       %
     %   K. Berland et al., Rep. Prog. Phys. 78, 066501 (2015).             %
     %   D.C. Langreth et al., J. Phys.: Condens. Matter 21, 084203 (2009). %
     %                                                                      %
     %                                                                      %
     % If you are calculating the stress with vdW-DF, please also cite:     %
     %                                                                      %
     %   R. Sabatini et al., J. Phys.: Condens. Matter 24, 424209 (2012).   %
     %                                                                      %
     %%%%%%%%%%%%%%%%%%%%%%%%%%%%%%%%%%%%%%%%%%%%%%%%%%%%%%%%%%%%%%%%%%%%%%%%


     Starting wfcs are   15 randomized atomic wfcs
     Checking if some PAW data can be deallocated... 

     total cpu time spent up to now is       69.8 secs

     Self-consistent Calculation

     iteration #  1     ecut=    60.00 Ry     beta= 0.70
     Davidson diagonalization with overlap
     ethr =  1.00E-02,  avg # of iterations =  5.0

     negative rho (up, down):  7.415E-03 0.000E+00

     total cpu time spent up to now is      107.9 secs

     total energy              =     -60.31681472 Ry
     estimated scf accuracy    <       0.65286561 Ry

     iteration #  2     ecut=    60.00 Ry     beta= 0.70
     Davidson diagonalization with overlap
     ethr =  4.35E-03,  avg # of iterations =  1.0

     negative rho (up, down):  4.946E-03 0.000E+00

     total cpu time spent up to now is      143.9 secs

     total energy              =     -60.22822794 Ry
     estimated scf accuracy    <       0.19854388 Ry

     iteration #  3     ecut=    60.00 Ry     beta= 0.70
     Davidson diagonalization with overlap
     ethr =  1.32E-03,  avg # of iterations =  5.0

     negative rho (up, down):  2.625E-03 0.000E+00

     total cpu time spent up to now is      182.6 secs

     total energy              =     -60.25789019 Ry
     estimated scf accuracy    <       0.02619382 Ry

     iteration #  4     ecut=    60.00 Ry     beta= 0.70
     Davidson diagonalization with overlap
     ethr =  1.75E-04,  avg # of iterations =  7.0

     negative rho (up, down):  3.593E-02 0.000E+00

     total cpu time spent up to now is      223.1 secs

     total energy              =     -60.25371978 Ry
     estimated scf accuracy    <       0.01514444 Ry

     iteration #  5     ecut=    60.00 Ry     beta= 0.70
     Davidson diagonalization with overlap
     ethr =  1.01E-04,  avg # of iterations = 20.0

     negative rho (up, down):  4.727E-02 0.000E+00

     total cpu time spent up to now is      266.7 secs

     total energy              =     -60.25285249 Ry
     estimated scf accuracy    <       0.00724427 Ry

     iteration #  6     ecut=    60.00 Ry     beta= 0.70
     Davidson diagonalization with overlap
     ethr =  4.83E-05,  avg # of iterations =  4.0

     negative rho (up, down):  1.146E-01 0.000E+00

     total cpu time spent up to now is      305.4 secs

     total energy              =     -60.25414398 Ry
     estimated scf accuracy    <       0.00341191 Ry

     iteration #  7     ecut=    60.00 Ry     beta= 0.70
     Davidson diagonalization with overlap
     ethr =  2.27E-05,  avg # of iterations =  5.0

     negative rho (up, down):  9.700E-02 0.000E+00

     total cpu time spent up to now is      345.1 secs

     total energy              =     -60.25350777 Ry
     estimated scf accuracy    <       0.00134624 Ry

     iteration #  8     ecut=    60.00 Ry     beta= 0.70
     Davidson diagonalization with overlap
     ethr =  8.97E-06,  avg # of iterations =  6.0

     negative rho (up, down):  9.359E-02 0.000E+00

     total cpu time spent up to now is      385.1 secs

     total energy              =     -60.25316722 Ry
     estimated scf accuracy    <       0.00081290 Ry

     iteration #  9     ecut=    60.00 Ry     beta= 0.70
     Davidson diagonalization with overlap
     ethr =  5.42E-06,  avg # of iterations = 16.0

     negative rho (up, down):  6.246E-02 0.000E+00

     total cpu time spent up to now is      427.5 secs

     total energy              =     -60.25244715 Ry
     estimated scf accuracy    <       0.00036220 Ry

     iteration # 10     ecut=    60.00 Ry     beta= 0.70
     Davidson diagonalization with overlap
     ethr =  2.41E-06,  avg # of iterations = 20.0

     negative rho (up, down):  5.691E-02 0.000E+00

     total cpu time spent up to now is      472.2 secs

     total energy              =     -60.25237229 Ry
     estimated scf accuracy    <       0.00015516 Ry

     iteration # 11     ecut=    60.00 Ry     beta= 0.70
     Davidson diagonalization with overlap
     ethr =  1.03E-06,  avg # of iterations =  2.0

     negative rho (up, down):  3.341E-02 0.000E+00

     total cpu time spent up to now is      509.3 secs

     total energy              =     -60.25225053 Ry
     estimated scf accuracy    <       0.00009214 Ry

     iteration # 12     ecut=    60.00 Ry     beta= 0.70
     Davidson diagonalization with overlap
     ethr =  6.14E-07,  avg # of iterations =  8.0

     negative rho (up, down):  2.981E-02 0.000E+00

     total cpu time spent up to now is      549.9 secs

     total energy              =     -60.25227256 Ry
     estimated scf accuracy    <       0.00004064 Ry

     iteration # 13     ecut=    60.00 Ry     beta= 0.70
     Davidson diagonalization with overlap
     ethr =  2.71E-07,  avg # of iterations =  2.0

     negative rho (up, down):  2.139E-02 0.000E+00

     total cpu time spent up to now is      586.4 secs

     total energy              =     -60.25229695 Ry
     estimated scf accuracy    <       0.00002138 Ry

     iteration # 14     ecut=    60.00 Ry     beta= 0.70
     Davidson diagonalization with overlap
     ethr =  1.43E-07,  avg # of iterations = 11.0

     negative rho (up, down):  1.822E-02 0.000E+00

     total cpu time spent up to now is      625.8 secs

     total energy              =     -60.25230514 Ry
     estimated scf accuracy    <       0.00000566 Ry

     iteration # 15     ecut=    60.00 Ry     beta= 0.70
     Davidson diagonalization with overlap
     ethr =  3.77E-08,  avg # of iterations =  2.0

     negative rho (up, down):  1.744E-02 0.000E+00

     total cpu time spent up to now is      663.0 secs

     total energy              =     -60.25230793 Ry
     estimated scf accuracy    <       0.00000364 Ry

     iteration # 16     ecut=    60.00 Ry     beta= 0.70
     Davidson diagonalization with overlap
     ethr =  2.43E-08,  avg # of iterations =  2.0

     negative rho (up, down):  1.584E-02 0.000E+00

     total cpu time spent up to now is      690.8 secs

     End of self-consistent calculation

          k = 0.0000 0.0000 0.0000 (292235 PWs)   bands (ev):

   -22.1902 -15.7729 -14.1889 -11.4965  -9.9752  -9.1972  -6.8207  -5.2045
    -1.1735  -0.8451  -0.5720  -0.3575

     the Fermi energy is    -5.2045 ev

!    total energy              =     -60.25231041 Ry

     total all-electron energy =      -233.544589 Ry
     estimated scf accuracy    <       0.00000068 Ry
     smearing contrib. (-TS)   =      -0.00282095 Ry
     internal energy E=F+TS    =     -60.24948946 Ry

     The total energy is F=E-TS. E is the sum of the following terms:
     one-electron contribution =    -139.42052293 Ry
     hartree contribution      =      71.52293955 Ry
     xc contribution           =     -16.38054822 Ry
     ewald contribution        =      43.68006933 Ry
     one-center paw contrib.   =     -19.65142719 Ry

     convergence has been achieved in  16 iterations

     negative rho (up, down):  1.584E-02 0.000E+00

     Forces acting on atoms (cartesian axes, Ry/au):

     atom    1 type  1   force =     0.00205772    0.00104730   -0.00003064
     atom    2 type  1   force =    -0.00083745    0.00062609    0.00193497
     atom    3 type  1   force =    -0.00211434   -0.00227099    0.00147246
     atom    4 type  2   force =     0.00124881   -0.00111842   -0.00045315
     atom    5 type  2   force =     0.00054750    0.00019784   -0.00077100
     atom    6 type  2   force =    -0.00090224    0.00151817   -0.00215266

     Total force =     0.005802     Total SCF correction =     0.000307

     negative rho (up, down):  1.584E-02 0.000E+00

     negative rho (up, down):  1.584E-02 0.000E+00

     negative rho (up, down):  1.584E-02 0.000E+00

     negative rho (up, down):  1.584E-02 0.000E+00

     negative rho (up, down):  1.584E-02 0.000E+00

     negative rho (up, down):  1.584E-02 0.000E+00

     negative rho (up, down):  1.584E-02 0.000E+00

     negative rho (up, down):  1.584E-02 0.000E+00

     negative rho (up, down):  1.584E-02 0.000E+00

     negative rho (up, down):  1.584E-02 0.000E+00

     negative rho (up, down):  1.584E-02 0.000E+00

     negative rho (up, down):  1.584E-02 0.000E+00

     negative rho (up, down):  1.584E-02 0.000E+00

     negative rho (up, down):  1.584E-02 0.000E+00

     negative rho (up, down):  1.584E-02 0.000E+00

     negative rho (up, down):  1.584E-02 0.000E+00

     negative rho (up, down):  1.584E-02 0.000E+00

     negative rho (up, down):  1.584E-02 0.000E+00

     negative rho (up, down):  1.584E-02 0.000E+00

     negative rho (up, down):  1.584E-02 0.000E+00

     negative rho (up, down):  1.584E-02 0.000E+00

     negative rho (up, down):  1.584E-02 0.000E+00

     negative rho (up, down):  1.584E-02 0.000E+00

     negative rho (up, down):  1.584E-02 0.000E+00

     negative rho (up, down):  1.584E-02 0.000E+00

     negative rho (up, down):  1.584E-02 0.000E+00

     negative rho (up, down):  1.584E-02 0.000E+00

     negative rho (up, down):  1.584E-02 0.000E+00

     negative rho (up, down):  1.584E-02 0.000E+00

     negative rho (up, down):  1.584E-02 0.000E+00

     negative rho (up, down):  1.584E-02 0.000E+00

     negative rho (up, down):  1.584E-02 0.000E+00

     negative rho (up, down):  1.584E-02 0.000E+00

     negative rho (up, down):  1.584E-02 0.000E+00
 BEEFens 2000 ensemble energies
             -0.123959384855779E+01
             -0.430550056034580E-01
             -0.242007642821391E+00
              0.847079385388405E+00
             -0.401036808173692E+00
             -0.286540489855864E+00
             -0.912309268724529E+00
             -0.186220726108100E+01
             -0.623067629111675E+00
             -0.687633707315380E+00
             -0.699697107695583E+00
              0.121935693264879E+00
              0.683827001169659E-01
             -0.114210136640769E+00
              0.715470256563200E-01
              0.908407209341632E+00
             -0.362000471019527E+00
             -0.158566132037650E+00
              0.478877041440041E+00
             -0.210476253056706E+01
              0.107635671027495E+01
             -0.364381528825993E+00
             -0.120650895942995E+00
             -0.164501607224917E+00
              0.670432001532042E-01
             -0.801616617527228E-01
              0.167520605449291E+01
             -0.481471476206771E+00
             -0.132917264521838E+00
             -0.108463496952996E+01
              0.128003367699797E+01
             -0.453131708688210E-01
             -0.794564883028771E+00
              0.323152184505169E+00
             -0.572682958092718E-01
              0.580695488002038E+00
              0.397476948398063E-01
             -0.226125747707662E-01
              0.760043222228684E+00
             -0.187960276883540E+01
              0.105038861062042E+01
              0.232968444177905E+00
             -0.262447655018245E+00
             -0.546785266698398E+00
              0.239952350450904E+00
             -0.355852189188109E+00
              0.981340422558427E+00
              0.665948894926034E+00
             -0.342236556113454E+00
             -0.615652311179527E+00
             -0.605230462232081E+00
             -0.720751797392742E+00
              0.454351706946430E+00
             -0.994718012124457E+00
              0.315242250515837E+00
              0.116231158249610E+01
              0.145882141940384E+01
              0.604037980810433E+00
              0.300530432608118E+00
              0.633725338083488E+00
              0.175153021353181E+01
              0.289655351790199E+00
             -0.104790018481463E+01
             -0.167199568643708E+00
             -0.569550618124198E+00
              0.118283422672824E+01
             -0.133981037148006E+01
             -0.112959422072107E+01
             -0.670196836801040E+00
             -0.394939929247867E+00
             -0.714736697002898E+00
              0.529589664769653E+00
              0.259943556893342E+00
              0.311021168004123E+00
             -0.742665121859195E+00
             -0.677212858967836E+00
             -0.113785517717545E+01
              0.585464875584169E+00
             -0.668303257220886E+00
              0.630159273880761E+00
             -0.172609969294086E+00
             -0.528437825636832E+00
             -0.931194348211004E+00
             -0.287114284222509E+00
             -0.327078489467961E+00
             -0.263870041567831E+00
              0.738755238702227E+00
              0.151616871334874E+01
             -0.876563047828367E+00
             -0.150493633643415E+01
             -0.345183373271744E+00
              0.206268897083572E+01
             -0.107719662621773E+01
              0.588548318561426E+00
             -0.226756427154365E+00
             -0.110509521671007E+01
              0.514808205989706E+00
              0.558059610105984E+00
             -0.295235735638498E+00
              0.537452512314010E+00
             -0.465300315135430E+00
             -0.118966694829923E+01
              0.195336181777159E+01
              0.863041409893667E+00
              0.376897387428632E+00
              0.240462575265507E+00
              0.469250521192638E+00
              0.154230253524707E+01
             -0.507205384656305E+00
              0.509556450787398E-01
             -0.262127937356742E+01
              0.320193030357031E+00
             -0.125778357574120E+01
              0.236551268009983E+00
              0.411662899339657E+00
             -0.715914984749670E+00
             -0.944987024561160E+00
              0.384666432412359E-01
             -0.597518303485184E+00
              0.863592513808773E+00
             -0.861900474784022E+00
             -0.179488680343569E+00
             -0.731853538117493E+00
             -0.572491650740954E-01
              0.106129006872261E+00
              0.467038496295912E+00
              0.104043844745583E-02
             -0.106385297278438E+00
              0.129072964035372E+01
              0.175649430902379E+01
              0.956641176415327E+00
              0.120398707825443E+01
             -0.241984258775105E+00
              0.151800062899219E+00
              0.967347970800153E+00
              0.127876711266826E+00
             -0.145292776981156E+01
             -0.859990905028308E+00
             -0.935925093208616E+00
             -0.559196154952655E+00
              0.490256022442526E+00
             -0.232704778828787E+01
             -0.242371305446145E+00
              0.895320562800337E+00
             -0.768193668491243E+00
             -0.553871948107739E+00
              0.113379446818960E+01
              0.934989304188545E+00
             -0.540988903118240E+00
              0.670608598732179E+00
             -0.483679281734997E+00
              0.717379390713627E+00
              0.113790553994297E+00
              0.176625525974364E+00
             -0.155548054477272E+01
             -0.898435606710419E+00
             -0.159995895687155E+00
             -0.810714780537330E-01
             -0.815235676337931E+00
              0.214067601777726E+01
             -0.200122984207413E+00
             -0.505253729797924E+00
              0.728880370595697E+00
             -0.838999971661616E+00
             -0.734557903424804E+00
              0.628672920110796E+00
              0.244845514463977E+00
              0.201361961396005E+00
              0.331850141184379E+00
             -0.201972663869867E+00
              0.173190543117286E+00
              0.110003643066150E+01
             -0.493150111543426E+00
              0.426492007892784E+00
              0.169199240077085E+01
              0.609520273757519E+00
             -0.684497570489189E-01
             -0.410258725260938E+00
              0.296770786070901E+01
             -0.496734580688993E+00
              0.759114006191910E+00
              0.606952834206195E+00
              0.501608143288181E+00
              0.176131984378774E+01
              0.874445155514524E+00
             -0.917063902833922E-01
              0.492213984906623E+00
              0.101005152247307E+01
              0.725184565769279E+00
             -0.117123685817779E+01
              0.180440446073995E+01
             -0.163652703747567E+01
             -0.184743645136536E+00
              0.106005081455052E+01
              0.359435523139529E+00
              0.114603137228226E+00
              0.499140452811077E+00
              0.296971210185723E+00
              0.614562312655597E+00
             -0.119112601577093E+01
              0.660919364278740E-01
             -0.445889736301604E+00
             -0.993177898092481E-01
             -0.711736098394784E-01
             -0.267570937607709E+00
             -0.123333111410417E+00
              0.157809686325471E+01
             -0.875116669892329E-01
             -0.536745973300671E+00
             -0.183567115987326E-01
              0.276207774335977E+00
             -0.123290340751853E+01
             -0.109573772526216E+01
             -0.638869179091326E+00
             -0.121014438029568E+01
             -0.367960232732722E+00
             -0.767530111002790E+00
              0.334625623650652E+00
              0.487353355071924E-01
             -0.246587867579341E+00
             -0.150957790883427E+00
              0.904420113368207E-01
             -0.224914763273787E+00
              0.125117771491527E+01
             -0.169227882070936E+01
             -0.254342187755428E+00
             -0.243904259495414E+00
              0.281362793711355E+00
              0.444635607230107E+00
             -0.984784479785223E+00
             -0.226582775647717E+00
              0.851334645394434E+00
             -0.357514727843477E+00
              0.264030054913835E+00
              0.623716867241433E+00
             -0.220745525563188E-01
              0.219074870136505E+01
             -0.181176855397478E+00
             -0.654871397671318E+00
             -0.130593922740836E-01
             -0.549603117224476E+00
              0.103742091723578E+01
             -0.949584985811311E+00
              0.281697563557271E+00
              0.918098638966411E+00
             -0.234494966971979E+00
              0.225339877174129E+01
              0.243088024046110E+01
             -0.135593414806455E+01
              0.110730974706245E+01
              0.472860298954143E+00
             -0.108269745428976E+01
              0.318522076657947E+00
              0.851811120750259E+00
              0.908887543480126E+00
              0.809467688658350E-01
              0.372382230395752E+00
              0.144354936869696E+01
             -0.443887086810337E+00
              0.176462339924919E+00
              0.126190554266486E+01
             -0.677228936984247E+00
             -0.485248929484223E+00
              0.115615347251119E+01
              0.590723624550565E+00
              0.146132272594338E+01
              0.672679755530817E+00
              0.274883342867826E+00
              0.467965573761755E+00
              0.820840536346397E+00
             -0.104001620392450E+01
              0.159559749892402E+00
              0.569947351731189E+00
              0.217028174765094E+00
              0.471507047748403E+00
             -0.120022626009853E+01
              0.606301824017843E+00
             -0.822611687958714E+00
             -0.602291268346649E+00
              0.396671745615557E+00
             -0.149716357215012E+00
              0.117292492311176E+01
             -0.237307418788522E+00
              0.569364585420907E+00
              0.576916293719108E+00
              0.146940787835260E+01
              0.993085254276648E+00
              0.979643841992227E+00
             -0.109275720565440E-01
             -0.237808019495828E+00
             -0.562100838536191E+00
              0.158988619358662E+01
              0.157811532654625E+01
              0.760812268147335E+00
             -0.555476041040931E+00
              0.944062166166678E+00
              0.271210629697363E-01
              0.299389488513571E+00
              0.134046611435457E+01
             -0.480020922434172E-01
             -0.187576921239603E+00
             -0.381182223880161E+00
             -0.120629244281504E+01
              0.185231254838983E+01
              0.100396602259805E+01
             -0.125717363311159E+01
             -0.427464804135195E+00
              0.467041291465388E+00
             -0.191995328569155E+00
              0.126262385283232E+01
              0.289230199413409E+00
              0.156172159128453E+01
              0.614913142555140E+00
             -0.423319362169986E+00
              0.332523547954886E+00
             -0.135498480519093E+00
             -0.460466061523800E+00
              0.323637503050933E+00
              0.291862932684202E+00
              0.175546413232340E+01
              0.145805339863426E+01
              0.110103852801281E+01
              0.127034891651749E+01
              0.139221394591857E+00
             -0.491250594765734E+00
              0.257869903897670E+00
             -0.625016063424027E+00
             -0.110257436140437E+01
             -0.106773885325322E+01
             -0.620067161814472E+00
             -0.206530329245788E+01
             -0.730210606337409E+00
             -0.166174427512887E+01
              0.410552420420487E+00
             -0.855910544603383E+00
              0.994490630806080E+00
             -0.190749269667245E+01
             -0.576721935028579E+00
              0.707230158669976E+00
              0.417454783545756E+00
             -0.175713830157794E+01
              0.100399106615272E+01
             -0.548283687257831E+00
              0.105712147466398E+01
             -0.495783940042266E+00
             -0.149804152118245E+01
              0.330701871562549E+00
             -0.125952673875695E+01
             -0.335621113429010E-01
             -0.389018553991933E-01
              0.777081656063695E+00
              0.241241011804015E+01
             -0.812377823655029E+00
             -0.716622336656186E+00
             -0.135418367860963E+00
             -0.135446804422606E+00
             -0.153501403098570E+01
             -0.107206828966683E+01
              0.945377836125810E+00
             -0.322057699905861E+00
              0.452214669769100E+00
             -0.935442088769260E+00
             -0.316127699528855E+00
             -0.792428459354224E+00
              0.925790887573359E+00
              0.215955497726046E+00
             -0.473772026908582E+00
             -0.357478656601082E+00
              0.267240037344206E+00
             -0.135052433424219E+00
              0.757327141852922E+00
             -0.503752604845282E+00
              0.237884359417842E+00
              0.658539076787623E+00
              0.226418619605569E+00
             -0.471706715776183E+00
              0.296073767232915E+01
              0.115980852241346E+01
              0.197590658140527E+00
              0.120043215133016E+00
             -0.116265760912119E+01
              0.648801345996843E+00
             -0.150952118433105E+01
             -0.666239676513634E+00
             -0.115264923174444E+01
             -0.353577613026845E+00
              0.115013722464455E+01
             -0.111406745640900E+01
              0.525437944368994E+00
             -0.924981718174553E-01
              0.198451436842935E-01
             -0.589062357169381E+00
             -0.797457337467167E+00
             -0.147117356405655E+00
             -0.603643415708263E+00
             -0.412934752827095E+00
             -0.764570057645756E+00
             -0.978833445460308E-01
             -0.606711952693475E+00
             -0.923275089661042E+00
              0.387534039917908E+00
             -0.212210904494238E+00
              0.474174945893999E+00
              0.153637157291304E+00
             -0.145518881134342E+01
             -0.965400661922120E+00
             -0.983391039917128E+00
              0.589499250737962E+00
             -0.139853622943704E+00
             -0.116266865643502E+01
              0.109933308952473E+01
             -0.812864142959977E+00
              0.114688613426248E+01
             -0.603360614898238E+00
             -0.935217751361358E+00
              0.455224066035303E+00
             -0.139079121805183E+01
             -0.593958436486609E+00
              0.110993486899889E+01
              0.393192547892635E+00
             -0.858357570050035E+00
              0.107659951183001E+01
             -0.310831393909494E+00
             -0.716913205006696E+00
             -0.564018525904852E+00
             -0.100289565776164E+01
              0.510791891418154E+00
             -0.167383589395580E+01
             -0.145098516580302E+01
             -0.155779425690637E+00
             -0.563907211569695E+00
             -0.116777438178136E+01
              0.146813609397355E+01
              0.265421544982759E+01
             -0.392334359060358E+00
             -0.838688694060741E-01
             -0.114256601551347E+01
              0.128065014045635E+01
              0.418524298256369E+00
             -0.410299489577376E+00
             -0.690800301988666E+00
              0.273273343451144E+00
             -0.113674368957590E+01
             -0.217543253747418E+00
             -0.163439230345202E+01
              0.653405535645657E+00
              0.203032153508389E+00
             -0.107142091780316E+00
             -0.243831010306783E+00
             -0.817266409216046E+00
             -0.266131599089282E+00
              0.262996595098642E+01
             -0.303994073429839E+00
             -0.945393955655900E+00
             -0.134023916733740E+01
              0.277667782340817E+00
             -0.744137147220833E+00
              0.204948561216770E+00
              0.641833892640112E+00
              0.997458519015160E-01
              0.692361861948608E+00
              0.355053422499494E+00
              0.112958179152826E+01
              0.464675218834524E+00
             -0.711388935293188E+00
              0.106981185091392E+01
              0.655696455771080E+00
              0.241484502643766E+00
              0.704647517521367E+00
             -0.623158221713210E+00
              0.136823296996989E+01
              0.515721293732213E+00
             -0.671533651189287E+00
             -0.102510935756961E+00
             -0.322799761157720E+00
              0.292473300329936E+00
             -0.477854447812912E+00
             -0.243388022370901E+00
             -0.243014898425603E+00
              0.156340415542357E+01
              0.112017201119375E+01
             -0.121215893999526E+01
             -0.162656003721381E+00
             -0.950428097254007E+00
             -0.248166624402141E+00
             -0.403680186609995E+00
              0.217130640499078E+00
             -0.537215775855749E-01
             -0.553835739474977E+00
              0.344394314347090E+00
             -0.182926064560513E+00
             -0.125807488820436E+00
              0.167964957508828E+01
              0.276710593307431E+00
             -0.162059093594446E+01
             -0.730027681238102E+00
              0.185814076146879E+01
              0.453609291083534E+00
             -0.162723015058734E+00
              0.210919257432985E+01
             -0.305335397092015E+00
             -0.148827223529670E+00
             -0.237139806466052E+00
              0.305698814359342E+00
              0.655510647775833E+00
              0.479099791249418E-01
              0.547042665725550E+00
             -0.209949789998061E+00
             -0.783619196395829E+00
             -0.763714105065511E+00
             -0.920253069018212E+00
              0.775604888111784E+00
              0.278750746171923E+00
              0.727459031681625E+00
              0.306387054214046E+00
              0.174322572339023E+01
              0.395621909733585E+00
             -0.148981810932049E+01
             -0.637003682784897E+00
              0.394137671520904E-01
             -0.536949653239754E+00
              0.122966464565550E+01
             -0.300045867862291E+00
              0.324871618714208E+00
              0.106717015874655E+01
             -0.155980702121566E+01
              0.283341843293374E+01
              0.377834411210940E+00
              0.466689767497854E+00
              0.734011137776438E+00
              0.538674330403772E-01
             -0.342060214989459E-01
              0.615698201241036E+00
             -0.676824052035685E+00
              0.167876999571073E+01
              0.146544508736212E+01
             -0.752780847627435E+00
              0.319524757668070E+00
              0.138952999698830E+01
             -0.408246032830959E+00
              0.407207763774881E+00
              0.620942076528731E+00
              0.790167002441866E+00
             -0.142519154467838E+01
             -0.105602854215148E+00
             -0.497222330424258E+00
             -0.110278655644496E+00
             -0.141340160657766E+00
              0.146302397508814E+00
             -0.234290243084780E+00
             -0.588409500560658E+00
              0.328723317768440E+00
              0.112179565205235E+00
              0.102316579257456E+01
             -0.900137449627428E+00
              0.894113708181361E+00
              0.975539856106308E+00
             -0.153183292640788E+00
              0.142824267894954E+01
             -0.129758258944931E+01
             -0.199018649271012E+01
             -0.167641274501029E+00
             -0.129106201301951E+00
             -0.799166615515645E-02
              0.150947397250057E+01
             -0.197011378584435E-01
              0.826546644589946E+00
              0.115057456861966E+01
              0.751743837040873E+00
             -0.133941893018941E+00
              0.113198454536800E+01
             -0.327759562765498E+00
             -0.751080873206007E+00
             -0.674465806084409E+00
              0.206501322244728E+00
              0.659682414692091E+00
             -0.450474777804324E-01
              0.638180001756620E+00
              0.691636925694628E-02
              0.106560928483420E+01
              0.304129705066392E+00
              0.159045496705737E+00
              0.204685207836128E-01
              0.563308921513735E+00
              0.788136538795233E+00
              0.280477304730553E+00
             -0.652866130026535E-01
             -0.104685643158844E+01
              0.584780674425710E+00
              0.401433927313650E+00
              0.624138236004764E+00
              0.574204969220506E+00
              0.705293650898686E+00
             -0.179744170039192E+00
              0.665203637266645E+00
             -0.574203193725729E+00
             -0.295532143909742E-01
             -0.100950155581301E+01
             -0.666352810688503E+00
              0.826455544074159E+00
             -0.169393240788824E+01
              0.460156438929394E+00
              0.267011931757096E+00
              0.166764422078742E+01
             -0.235196878224031E+00
              0.642063058316812E+00
             -0.223017694917658E+00
             -0.958794530630970E+00
             -0.125572097980769E+01
             -0.303604994897094E+00
             -0.175268562224242E+01
              0.155470027788027E+00
             -0.396576578512956E+00
              0.634116746134223E+00
              0.482520222910811E+00
             -0.558495116472124E+00
             -0.583173965791621E+00
              0.824094086471931E+00
             -0.111182793230771E+01
             -0.266943449028090E+00
             -0.316949470858790E+00
              0.524146809184998E+00
              0.107357102564191E+00
              0.754900582559861E-01
             -0.288041233343865E+00
              0.103687683115910E+01
             -0.117135181433111E+01
              0.122733014986114E+00
              0.115879593366956E+01
             -0.708876253973921E+00
              0.740884750686979E-01
              0.371550906716429E-01
             -0.124275470254273E+01
             -0.720815126484623E+00
             -0.300992031347555E-01
              0.605145411728446E+00
              0.675460098108704E+00
              0.867384557224149E-01
             -0.238706063762491E+00
              0.324385349510801E+00
             -0.772265972758736E+00
             -0.955967633969799E-01
             -0.101231269390958E+01
             -0.513259060513393E+00
              0.970695670803353E+00
             -0.588343087801464E+00
              0.135597282872102E+01
             -0.459044000952274E+00
              0.632284992408645E+00
              0.491360329996471E+00
             -0.115476527146502E+01
             -0.479879348575933E+00
              0.195680597986137E+00
             -0.821013745438510E+00
             -0.791674414776548E+00
             -0.173396613402883E+01
             -0.106071605067419E+01
             -0.952007624833507E+00
             -0.868727636349662E+00
              0.118335877373221E-02
              0.476736285017135E+00
              0.230331882745046E+00
              0.541499741648401E+00
             -0.113165485254149E+01
              0.258098879994096E+00
              0.558570309839443E+00
             -0.132050018053551E+01
             -0.109679169197903E+01
             -0.762548498647984E+00
             -0.640849219845751E+00
              0.272244300879274E+00
             -0.609575965263502E-01
             -0.797139363951310E+00
              0.531656167506315E+00
             -0.451218424875734E+00
              0.100685902012144E+01
             -0.170011818449212E+01
              0.124675199599558E+01
             -0.234618757904802E+00
             -0.843358642850645E+00
             -0.528479555276658E+00
             -0.201889374500506E-01
              0.944477555323183E+00
             -0.134175292704733E+01
             -0.243076179392987E+00
             -0.323640471709327E+00
              0.786132882951501E+00
              0.154904599557112E+01
             -0.194150623010934E+01
              0.176583748054091E+01
              0.734425459964761E+00
             -0.146762441216704E+01
             -0.592966108756378E+00
              0.152446258267705E+01
              0.109993445702764E+01
             -0.404358318186718E+00
             -0.136094703091810E+00
              0.351682564670324E+00
              0.150644348747488E+01
             -0.114848440152200E+01
              0.240551670967414E+00
             -0.152926100979436E+00
              0.498351927936026E+00
             -0.135522620368658E+01
             -0.433441164476502E-01
             -0.508756462368177E+00
              0.932036323314413E+00
              0.738240766181837E+00
             -0.172801532488522E+01
             -0.909366623103598E+00
             -0.395249992029740E+00
             -0.855693682364730E+00
             -0.239996968394490E+00
             -0.331567017845269E+00
              0.879242293089611E+00
              0.827699945445296E+00
             -0.207285375705784E-01
             -0.857876929171728E+00
             -0.166987409918203E+01
              0.983283429697995E+00
             -0.885499733035625E+00
             -0.727267524772666E+00
              0.142911442688274E+00
             -0.725230335218817E+00
             -0.779323226782723E+00
             -0.602282751824698E+00
             -0.993668691502402E+00
             -0.457601458137781E+00
             -0.954561057681737E+00
              0.105614313303630E+01
              0.112540702659253E+01
             -0.217150137897690E+00
             -0.396022466423107E+00
              0.639476795191491E-01
              0.813034946024771E+00
             -0.162693972533935E+01
             -0.449238854445994E+00
              0.953304885876568E+00
              0.139637339874954E+01
             -0.189674881966930E+00
              0.191139605286985E+00
              0.101901704717647E+01
              0.290976758529509E+00
              0.396322698696920E-01
             -0.756342507189192E+00
              0.277636738599453E+00
             -0.623593073509040E+00
             -0.133729798785011E+00
             -0.413574537187593E+00
             -0.270487448737044E+00
              0.475971685947057E+00
              0.152646573045020E+01
             -0.140106142068398E+00
              0.367642715002705E-01
             -0.176253655326150E+01
             -0.342852653443623E+00
             -0.684144922918001E+00
             -0.279282047638896E-01
             -0.927914882834821E+00
              0.174715425394703E+01
              0.167124122228857E+01
              0.356501903195038E+00
             -0.453770189798191E+00
              0.358091873619232E+00
              0.384792930591374E+00
             -0.894706226990852E+00
             -0.187915571497356E+00
              0.387271672601864E+00
              0.230995404083615E+00
              0.983801869290478E+00
              0.749984956008773E+00
             -0.396693225536890E+00
              0.404102326325992E+00
             -0.187931831811104E+01
             -0.283320809759591E-01
              0.173329409861517E+01
              0.354788530086871E+00
             -0.569243005815814E-01
              0.518951048251762E+00
             -0.467519778746161E+00
              0.167425152193677E+01
             -0.391644075669228E+00
              0.149287892453367E+01
              0.741206807118062E+00
             -0.859134668986378E+00
              0.641622101163452E+00
             -0.545884094762663E+00
             -0.131425934330941E+01
             -0.149566387496733E+00
             -0.104183952303696E+01
             -0.100762661511183E+01
             -0.317257238532811E-01
              0.728821122409897E+00
             -0.272754910098823E+00
             -0.585742983457973E+00
              0.141838620452729E+00
             -0.126730503661761E+01
             -0.637692554381893E-01
             -0.168439163120388E+01
              0.996468670457634E+00
             -0.731326836588799E-01
             -0.947168534400813E+00
             -0.291710004333000E+00
              0.340744400517631E+00
             -0.738525070216931E+00
             -0.851228005861471E+00
              0.176877297661102E+01
             -0.537704787395138E+00
             -0.713512792320493E+00
              0.618189358811544E+00
             -0.424901817862269E+00
              0.111487998112269E+01
             -0.492675320396341E-01
              0.539016457991677E-01
              0.212573281917451E+01
             -0.161641135289378E+00
             -0.742085500119078E+00
             -0.917169029136712E+00
             -0.985339509961880E+00
             -0.722047574039435E+00
              0.560879553257374E+00
              0.600134132940557E+00
              0.536777324307260E+00
              0.143591068395667E+01
              0.110430668625154E+00
              0.443203131082854E+00
             -0.111329558003679E+01
              0.400754396276186E-01
             -0.296709154648132E+00
             -0.532922381127715E+00
             -0.139107345414489E+00
              0.634414075186763E+00
              0.735508638105864E+00
             -0.479972387049507E-01
              0.260877390681545E+00
              0.522915299432462E+00
              0.654358974513371E+00
             -0.463962617753126E+00
             -0.188804163866390E+00
              0.653378215448441E-02
             -0.501415438062201E+00
             -0.548898638689836E-01
             -0.774580943924981E+00
              0.153456048247163E+01
              0.119788074957471E+01
             -0.358721465620549E+00
              0.322506507447979E+00
             -0.112813961398266E+00
             -0.617506891681959E+00
              0.719812781345419E+00
             -0.182046167188620E+00
              0.717376703261055E+00
             -0.925174140304505E+00
              0.349780135831049E+00
             -0.155865023288483E+00
             -0.103850575348943E+01
             -0.474184519399813E+00
              0.471354998895363E+00
             -0.188519297128859E+01
              0.749700778376205E+00
              0.900164789968977E+00
             -0.196069701615179E+00
             -0.148895005056687E+00
             -0.804459081718214E-01
              0.515054109267130E+00
             -0.662591420926071E+00
              0.602027627104611E+00
              0.616392461402260E+00
             -0.174730377545369E+01
             -0.710883186882666E+00
              0.467479945513893E+00
             -0.233996882943165E+00
              0.948368041753664E+00
             -0.119541407200171E+01
             -0.203139070760544E+00
             -0.771395678569481E+00
             -0.252022732324044E+01
              0.152243711659005E+01
             -0.114624570487975E+01
             -0.129679318035895E+01
              0.124721227288049E+00
              0.249092732084050E+01
              0.131435136088637E+00
             -0.627430180998510E+00
             -0.268274921016012E-01
             -0.742164789985840E-01
             -0.164747006802472E+01
             -0.106264663420542E+01
              0.165055968431673E+01
             -0.233452161332738E+00
             -0.696561649683817E+00
              0.934970015679880E+00
             -0.633323037553136E+00
              0.644183632059281E+00
              0.942108680587447E+00
             -0.102507391738302E+01
             -0.539557913566323E+00
             -0.620505608350360E+00
             -0.341579223791551E+00
             -0.370919312099113E+00
             -0.355577794654959E+00
              0.386015808800595E+00
             -0.687548601111339E+00
              0.534977919543367E+00
              0.106069565784163E+01
             -0.126008458872732E+00
             -0.407652559064265E+00
              0.298656170564671E+00
              0.105972479181041E+01
              0.106168325743726E+01
              0.209979466382292E+00
             -0.203427669789987E+00
             -0.216211897751865E+00
             -0.102598421206484E+01
              0.781947132507874E+00
             -0.469718110330721E+00
              0.439921998797780E+00
             -0.258382663409904E+00
              0.500822611867915E+00
              0.333068066851080E+00
             -0.157123975440618E+01
             -0.491118571924963E+00
             -0.152112515297135E+01
             -0.770713245079692E+00
              0.772187919574927E-01
             -0.383200628993623E+00
              0.683977504900506E+00
             -0.554310381291550E+00
              0.724941649062085E-01
              0.137946067640812E+00
              0.135256708521683E+01
              0.696722430914993E+00
             -0.628525303458758E+00
             -0.441340156090573E-01
              0.293273785113119E+00
              0.720498198032511E+00
             -0.131508362300314E-01
              0.109215921279597E+01
              0.515850956026632E+00
              0.173734285091615E+01
              0.651249356337891E-01
              0.119986035069380E+01
             -0.537014540063954E+00
             -0.756337658536091E+00
              0.440076326944396E-01
              0.206117609557753E+00
              0.438064912687699E+00
             -0.396918057754680E+00
             -0.215409891393233E+00
              0.457838868114110E+00
             -0.916680781175431E+00
             -0.115940129632072E+01
              0.153900662205339E+01
             -0.120275446124321E+00
             -0.704515434440735E+00
             -0.968844095758996E-01
             -0.269669641068976E+00
              0.854341293364484E+00
              0.696793826251707E+00
             -0.399537991626595E+00
              0.980205182994043E-02
             -0.496563895706291E+00
             -0.686706702854609E+00
             -0.458902726011097E+00
             -0.188984915006989E+01
              0.287755755259678E-01
             -0.123532213470585E+01
             -0.114105012741497E+01
             -0.718881153995936E+00
              0.431725628688012E+00
             -0.740671833183564E+00
              0.465349960163253E+00
             -0.125198690572875E+01
              0.486029313480074E-04
             -0.813615023283342E+00
              0.162199116295842E+00
              0.158730159541586E+00
              0.684498099181445E+00
             -0.404096372782352E+00
             -0.351004071442889E+00
              0.619200526679071E+00
              0.114667124409386E+01
              0.626696076646624E+00
              0.212728581856751E+00
             -0.143883807379704E+01
             -0.307761950382703E+00
             -0.543901306939102E+00
             -0.118471030756033E+01
              0.830747213361539E+00
             -0.670584335765369E+00
             -0.144282597597166E+00
             -0.533214524530268E+00
             -0.190963229538090E+01
              0.107484924163055E+01
             -0.352071630679806E+00
              0.750239992368570E+00
             -0.142956428640532E+01
              0.127100092819910E+01
              0.118556230252250E+00
             -0.497457377068548E+00
              0.202726112408870E+00
             -0.385783267769079E+00
             -0.120793884532166E+01
              0.327451705852826E+00
              0.762283444847205E+00
             -0.260125822158130E-01
             -0.665667555724093E+00
             -0.309499192485302E+00
              0.397374374037792E+00
              0.711299701095338E+00
              0.119081679994679E+01
              0.435611657921751E+00
             -0.445877635784306E+00
              0.193990059698320E+01
              0.414405753288888E+00
              0.917845123586337E+00
             -0.331486745747444E+00
              0.563011851053419E+00
              0.459114602840192E+00
             -0.119250227509869E+01
             -0.429457766463614E+00
             -0.783863966200399E+00
             -0.803849054146253E+00
             -0.238461337548092E+00
             -0.166365165069992E+00
             -0.896778111980856E+00
             -0.213673623796337E+01
             -0.523631417141742E+00
              0.260750256855472E+00
              0.119445581240296E+00
              0.307272436526047E+00
              0.783761590406917E+00
              0.201535857088661E+00
              0.608402680269871E+00
             -0.830178312768859E+00
              0.836154737488011E+00
             -0.764534356174284E+00
             -0.130190229846913E+01
              0.391563375545079E+00
             -0.819152784190001E+00
             -0.767114354213207E+00
             -0.307655235747088E+01
             -0.146017972319184E+00
              0.162946172446651E+01
              0.785792033417158E+00
             -0.195861308521170E+00
             -0.204501166156787E+00
              0.858339296943169E+00
              0.123607225166336E+01
             -0.757805923775523E+00
             -0.246825131497399E+00
             -0.701077500966465E+00
             -0.648341086415900E+00
             -0.569160616398604E+00
              0.204945175866769E+00
              0.133804278349890E+01
             -0.125290241593243E+01
             -0.105046351201132E+01
              0.760567597050894E-01
             -0.278125204396822E+00
             -0.326049119174994E+00
             -0.172404983547655E+01
              0.121962666111359E+01
              0.381632772756360E+00
              0.185839390749256E+00
              0.100136198738147E+01
             -0.635599789902825E+00
              0.643830577683880E+00
              0.551756648815013E+00
              0.215618807194984E-01
             -0.153678573137696E+00
              0.160595521117212E+00
             -0.303120866845347E+00
              0.102160583631566E+01
             -0.763799681503939E+00
              0.900919058931725E+00
              0.171165910037247E+00
              0.329562569815720E+00
              0.390994146041381E+00
             -0.157723507604766E+01
              0.200912288152201E+00
             -0.128455597952271E+01
             -0.927950060917579E+00
             -0.916503695644917E+00
             -0.101505428348263E+01
             -0.642975998530915E-03
              0.365903950878160E+00
              0.964038972511120E+00
              0.140406159479922E+00
              0.286790186602667E+00
             -0.133877924856519E+01
             -0.533614414104108E+00
              0.623476479406207E+00
             -0.765464149437272E-01
             -0.639097026521998E-01
             -0.184879920370832E+00
              0.687749844392789E+00
             -0.174768851591519E+01
              0.252968051477684E+00
              0.392021960391876E+00
              0.756972259449810E+00
              0.709965336177858E+00
             -0.109073275869099E+01
              0.303672549361782E+00
              0.128471622500999E+00
              0.126628511918789E+00
              0.118653450430649E+00
             -0.379497487454238E+00
             -0.831699373963158E+00
              0.343749650407859E+00
              0.112610887421430E+01
             -0.219968441452512E-01
              0.262144896125731E+00
              0.250342899559362E+00
             -0.591527743680587E+00
             -0.634494936716649E+00
             -0.236827119426705E+01
             -0.722297275272179E+00
             -0.113390705616456E+01
             -0.118202489379724E+00
             -0.131803257890232E+01
              0.145661125867211E+01
             -0.652477746773823E+00
             -0.106477598146216E+01
             -0.302547740366819E+01
              0.128916201294948E+01
              0.286742762511191E+00
              0.204695056192556E+00
             -0.117740045827386E+01
              0.853963874401558E-01
             -0.329644565066010E+00
             -0.603515232612989E+00
              0.170015837873854E+00
              0.630594056526194E+00
              0.918409217011478E-01
             -0.400049119150529E+00
              0.731356736383244E-01
              0.276120827707800E-01
              0.210653514611273E+00
             -0.128217466751298E+01
              0.142282152248756E+01
             -0.802072344070182E+00
             -0.512153298611992E+00
             -0.997316323456740E+00
             -0.211536234289274E+01
              0.908195934242757E-01
             -0.111267111990722E+01
             -0.348784146332968E+00
              0.595294493741847E+00
             -0.522119655691336E+00
             -0.218715929140425E+00
             -0.250099060058992E+00
             -0.375411946052985E+00
              0.712124623829093E-01
              0.996546542640819E+00
             -0.961128145724783E+00
              0.200048271090330E+01
             -0.492735659980018E+00
              0.623549035877318E+00
             -0.352019173474571E+00
              0.229464613412628E+00
             -0.232309127025170E+00
              0.856923938110558E+00
              0.120000417919969E+01
              0.351514586066424E+00
              0.839394841704196E+00
             -0.569881323711049E+00
             -0.148318563653286E+00
             -0.447964603442397E+00
              0.123807520238109E+01
              0.106508738277722E+01
              0.776924785079846E+00
             -0.240429865236603E+00
             -0.494001054459297E+00
              0.470696533736342E+00
             -0.570415385260330E+00
             -0.282843744980568E+00
             -0.111901787787810E+00
             -0.677272411225127E+00
              0.942566119489858E+00
             -0.212516337060886E+00
              0.697950656582621E+00
              0.432997044062326E+00
              0.290671321853187E+00
             -0.652780690346620E+00
              0.478802562378942E+00
             -0.273890174524581E+00
             -0.141440070583578E+00
             -0.179631716782236E-01
             -0.924883442259491E+00
              0.149353288730017E+01
             -0.511524738565123E+00
             -0.607665190604312E-02
              0.474723662729734E+00
              0.405701264151726E+00
              0.149161893118569E+01
             -0.409181913264780E+00
              0.144557114626520E+01
              0.128511275568432E+01
             -0.179229955845192E+01
              0.134310405764426E+00
             -0.357775602599020E+00
              0.244049539753091E+00
              0.924813534317734E-01
              0.417504228956162E+00
              0.123340830035929E+01
              0.193362929987436E+01
             -0.140880452528162E+01
              0.146528809153256E+01
             -0.194023497326866E+01
             -0.166850923309804E+01
             -0.286025537127351E+00
              0.114094207345063E-01
              0.151478447502692E+01
              0.625261151979085E+00
             -0.254711308722255E+00
             -0.159886179026352E+01
              0.129232801194984E+01
             -0.786971019479093E+00
              0.256997290473429E-01
             -0.110125134554040E+00
              0.249278608413526E+01
             -0.431271194946044E+00
             -0.203162284070458E+01
              0.582154075336623E+00
             -0.313193022155757E+01
              0.244729247745561E+00
             -0.738796797236177E+00
             -0.343650866020071E+00
             -0.501094782894799E+00
             -0.115338444367556E+01
              0.708527178337195E+00
             -0.709545690934412E+00
             -0.265356545014296E+00
             -0.145671510828262E+01
             -0.795871401211299E-01
             -0.103943809826944E+01
             -0.149473573286375E+01
             -0.204104058481605E+01
              0.154302579304563E+00
             -0.720979699849730E+00
              0.201819581831467E+00
             -0.274295347391497E+00
             -0.160303396551196E+01
             -0.124151803272294E+01
             -0.109541661267125E+01
             -0.113782039402069E+01
              0.100737248304221E+01
              0.101677248285722E+00
             -0.960625928323014E+00
             -0.481137919116902E+00
             -0.536597290788311E+00
              0.810194844670650E+00
             -0.583556048627612E+00
             -0.856195547082330E-01
             -0.613231658311323E+00
             -0.755677026434411E+00
             -0.805945054525766E+00
              0.776202924252042E+00
             -0.251863706951991E+00
             -0.178610077403934E+01
              0.148974548334937E+01
              0.870770938063036E+00
              0.555486963339300E-01
             -0.157377230094869E+01
             -0.143001137226562E+01
              0.949306256204263E-01
              0.935810231401035E-02
             -0.645421512141796E+00
             -0.835501737583737E+00
              0.576538458968008E+00
             -0.926477304667888E-01
              0.525044151612200E+00
              0.926490752234423E+00
              0.670774572776798E+00
              0.483765349352639E+00
              0.419537071983002E+00
             -0.429417945998643E+00
             -0.298746665358897E+00
             -0.371748032118481E+00
             -0.740358480642080E+00
             -0.894507405579251E+00
             -0.116200053741819E+01
             -0.692635517734882E+00
             -0.242901572124604E+00
             -0.143001968000105E+01
             -0.336088535514380E+00
              0.702706655867025E+00
             -0.163478315884933E+01
              0.711005667810602E+00
              0.573546733281254E+00
             -0.140574510204869E+01
             -0.107215146273515E+01
             -0.440608296422465E+00
              0.239400242484294E+00
             -0.804048075210185E+00
              0.145582705348217E+01
              0.128419557687549E+01
             -0.149311739860708E+01
              0.799329083996140E+00
              0.700542776117286E+00
              0.193638471732831E+00
              0.369209558465877E+00
             -0.825442302059695E+00
             -0.300641212145746E+00
              0.130062505131811E+00
              0.396696370631203E+00
              0.794223284619415E+00
             -0.103343783770087E+01
             -0.216889842863313E+00
              0.309910855195376E+00
              0.210755141113736E+00
             -0.656979381493378E+00
              0.362746622665548E+00
             -0.478281902262640E+00
             -0.347777556236756E+00
             -0.167213738123966E-01
             -0.119241608148549E+01
             -0.228389014538055E-02
             -0.170204029388358E+00
             -0.294833407928697E+00
              0.298036568685849E+00
             -0.101944594555381E+01
              0.113625776874321E+01
             -0.418589359723365E+00
             -0.259404909883271E+01
             -0.165967224714513E+01
              0.670414792591639E+00
             -0.814713835077557E+00
             -0.409858493612809E+00
             -0.445215116111981E+00
             -0.377653827231495E+00
             -0.199841337777982E+01
             -0.208825311554683E-01
             -0.119679743031581E+01
             -0.665276418177681E+00
              0.375285773645387E+00
              0.153876057825588E+01
              0.904175930321529E-01
              0.466753012562742E-01
              0.116105314948769E+01
             -0.113507046689639E+01
              0.543040306850118E+00
              0.112075461392793E+00
             -0.102256582132710E+01
             -0.596161239021128E+00
              0.372370006249854E+00
              0.634835824460032E-01
              0.328813565452952E+00
              0.259447978925055E+00
             -0.451733393401356E+00
             -0.654574971240628E+00
             -0.977443879510510E+00
              0.964396367185649E+00
             -0.131188406300907E+01
             -0.974628436356398E+00
              0.272542298662005E+00
             -0.161945912540581E+01
              0.459233131452437E+00
              0.116741063965308E+01
             -0.225541948992281E+00
              0.384529862700976E+00
             -0.657711390348256E+00
             -0.431657056593778E+00
              0.205066697763666E+00
              0.697915602734613E+00
             -0.708070008702082E+00
              0.441130743869039E+00
             -0.277578076663272E+00
              0.148042563405160E+00
              0.357785509160924E+00
              0.178826962623059E+00
             -0.249996303160083E+00
             -0.179124250080474E-01
              0.227428417165743E+00
              0.547606960802844E+00
             -0.137240448482510E+01
             -0.243735942300631E-01
              0.101710115184671E+01
             -0.170307299811136E+01
              0.636954611052859E+00
             -0.219468954555921E+01
             -0.223518029764109E+00
             -0.272636560028458E+00
             -0.581760714303172E-01
             -0.251540845857260E+00
             -0.529868198384284E+00
             -0.207479523746393E+00
              0.229574139756281E+00
             -0.503123924117111E+00
              0.208563572666997E+00
              0.175546960516483E+01
             -0.110329959242726E+01
             -0.482146055615139E+00
              0.814854417342620E+00
              0.409530580116737E+00
              0.829488353057644E+00
              0.398272985688752E+00
              0.313823573291831E+00
             -0.282645178009937E+00
             -0.951882608237399E+00
             -0.868250698361983E+00
             -0.673797781835343E+00
              0.111281456620074E+00
             -0.823928809921204E+00
             -0.229645541061598E+00
              0.116435984206231E+00
              0.471976031920498E+00
             -0.131113862197376E+00
              0.114367250604763E+01
             -0.126842224036294E+01
             -0.231676773133360E-01
             -0.139532034791915E+00
              0.604821166632895E+00
             -0.813224738956129E+00
             -0.533619145681349E+00
              0.251797295605596E+00
              0.868277261732111E+00
              0.146356700467163E+01
              0.575693357691909E+00
              0.888443438417960E+00
             -0.478221436434733E+00
              0.122408193855666E+01
              0.122088436024638E+01
             -0.187514421864226E-01
              0.588384858927155E+00
              0.723509202283349E+00
             -0.402695595387770E+00
              0.279604893562986E+00
              0.126780910286909E+01
             -0.408439242295193E+00
             -0.119806670280024E+00
             -0.119597068817231E+01
              0.426796973141097E+00
             -0.296288578981131E+00
              0.415646483049742E+00
              0.274542740722867E-01
             -0.755901352673503E+00
              0.877104196280144E+00
              0.758332256863662E+00
             -0.610786398121936E+00
              0.332036201228214E+00
             -0.116074646560018E+01
             -0.105312074501184E+01
              0.477886532676603E+00
             -0.131556442308120E+01
             -0.667327906940327E+00
              0.124429268743267E-01
              0.165679566112479E+01
             -0.441307866889167E+00
             -0.215092175987023E+00
             -0.396388404729328E+00
              0.216131597005805E+01
              0.345396213459711E+00
             -0.827622029973079E+00
              0.137326899571602E+01
              0.120311131627538E+01
              0.628146268942540E+00
              0.153595621507643E+01
              0.169310509113846E+01
             -0.632212529786536E-01
             -0.553126571772723E+00
             -0.477845975240699E+00
              0.541052177840398E+00
              0.760117564312602E+00
             -0.140678230416962E+00
             -0.463824929248837E+00
             -0.110626291875907E+01
             -0.395538834898935E+00
             -0.900609675906917E+00
              0.654897284331362E+00
              0.345454215150012E+00
              0.117058147284583E+01
              0.264751804689627E+00
             -0.443015176356225E+00
             -0.171296897444784E+00
              0.764967141135648E+00
              0.199513138941262E+00
              0.118666077012575E+01
              0.106720074591595E+01
             -0.160716600377251E+00
             -0.177256348633635E+00
             -0.196871152437051E+01
              0.954136951728112E+00
             -0.257702514293712E-02
              0.111495566051690E+01
             -0.495121319441409E+00
             -0.127259306550034E+01
              0.370114412735872E+00
              0.140600487165699E+01
             -0.482209234718022E+00
              0.127302276182657E+01
             -0.138411292038707E+01
             -0.502946223532553E+00
             -0.165927362853159E+01
              0.304711276966918E+00
              0.870364487569644E-01
              0.164334235473969E+00
             -0.120176299345520E+01
              0.180554808315299E+01
              0.104207059378472E+01
              0.117661045638840E+00
             -0.106301638599781E+01
              0.390794307509522E+00
             -0.351737860037905E+00
             -0.290796041453421E+00
             -0.533989586672911E+00
              0.322372005511889E+00
             -0.337404099636053E+00
             -0.353375727405066E+00
              0.453311240714054E+00
              0.452744563858062E+00
             -0.173030905699553E+01
              0.383987996918483E+00
              0.127848784889611E+01
              0.819881703553408E+00
             -0.249241675929771E+00
             -0.436115407605042E-01
             -0.706252036726902E+00
              0.107090603358057E+01
              0.171502412997044E+00
             -0.538275683966436E-01
             -0.123257567438374E+00
              0.209092962966494E+01
             -0.140968777291492E+00
              0.415409169058955E+00
              0.144549138387691E+01
              0.184714703782413E+01
              0.115010187523088E+01
              0.748053748576401E+00
             -0.124367779629238E+01
             -0.895156537282030E+00
              0.701964056169460E+00
              0.106741548825720E+00
              0.594648822792105E+00
              0.244934743005099E+00
              0.125156765713456E+01
             -0.153107828487774E+01
             -0.942442144239152E+00
             -0.220664513337987E+00
             -0.168625217802350E+01
              0.381133264770587E+00
              0.895840217893280E+00
              0.925941097126604E-02
             -0.396337181804856E+00
              0.397937291435072E+00
              0.260048610704543E+01
              0.614206131174052E+00
              0.337921000833406E+00
             -0.906457810544637E+00
             -0.111626246560175E+01
             -0.256392054729713E+00
              0.555673418687404E+00
             -0.110204214678305E+00
              0.514099740042256E+00
              0.691264132314231E+00
             -0.116391659221151E+01
              0.517211520059957E+00
              0.645305362154751E+00
              0.107568827501302E+01
             -0.193253951712515E+00
              0.112539948268635E+00
             -0.136476475173558E+00
             -0.856783161121811E+00
             -0.140813074021963E+01
              0.145749416718765E+01
             -0.194207489060564E+00
             -0.101335803939720E+01
              0.166822960159613E+00
             -0.584929074004721E+00
              0.164540454555826E+01
             -0.448990470045315E+00
             -0.733406072082827E+00
              0.720012522043476E+00
             -0.303280782172140E+00
              0.893342980920157E+00
              0.569320745958031E-01
              0.177334723165568E+01
              0.102337638264362E+01
              0.244700474268705E+00
             -0.763381072572839E+00
              0.548460203812943E+00
             -0.104194633942575E+01
             -0.910636333294923E-01
              0.123838893222001E+01
             -0.490652110436662E+00
             -0.835437675920443E+00
             -0.450334215887488E+00
              0.989537955537708E+00
              0.221213026317723E+00
             -0.155455809148281E+01
              0.652113684967902E+00
              0.110973640994219E+00
              0.213749273604548E+00
             -0.942020712453022E+00
              0.188137641734674E+00
              0.662188773944485E+00
              0.871159822788769E+00
              0.127004862989025E+01
              0.675498636144532E+00
              0.141582016134405E+00
             -0.107317951118178E+01
             -0.811895077001854E+00
             -0.123249707590109E+01
             -0.288138115859407E+00
              0.660319026245566E+00
              0.362029504820849E-02
              0.100354732446317E+01
             -0.617336687277112E+00
              0.334018587839429E+00
             -0.452531589264007E+00
             -0.520071821900781E+00
              0.113441718191262E+01
              0.104350057774593E+00
              0.120812081330829E+01
              0.949645619202730E-01
              0.371561112404887E+00
             -0.316496803354951E+00
              0.115292667229982E+01
             -0.326705236554142E+00
              0.636654831008848E-02
             -0.150367188990474E+01
             -0.132478316381864E+00
              0.133489641175792E+01
              0.122135788769186E+01
              0.496616825082475E+00
             -0.306629460117162E+00
              0.115019007162084E+00
             -0.462932962553104E+00
             -0.387110808342974E+00
              0.173533813501255E+01
              0.157987069032545E+00
             -0.562185472869967E+00
             -0.203700414114730E+01
             -0.807882385449555E+00
             -0.730829704368205E+00
             -0.116285277435101E+01
             -0.114643199529716E+01
             -0.134979295064014E+01
             -0.866768643230329E+00
             -0.533669216022535E+00
             -0.928545085264253E+00
              0.848093400695652E+00
             -0.328287748259394E+00
             -0.158809686071176E+01
              0.788314511870913E+00
             -0.649376577110036E+00
             -0.152719844839372E+01
              0.193138688986836E+01
             -0.499463948496911E+00
              0.283688606722071E+00
              0.714479411760326E+00
              0.268586557988156E+00
              0.517789108063791E+00
              0.196209821644588E-01
              0.257583893023457E-01
             -0.257269262585396E+00
             -0.141927619989301E+01
              0.206172611448316E+00
             -0.230169261790066E+01
              0.140831558475554E+01
             -0.779383253767278E+00
             -0.370244562867002E+00
             -0.409301609774158E+00
              0.427403575129894E+00
             -0.303275798717640E+00
              0.530702551482822E+00
             -0.112814258774836E+01
              0.686160671998287E+00
              0.831634676447411E+00
              0.157712955050632E+00
              0.185581857448835E+00
              0.411149661808301E+00
              0.196618530856840E+00
              0.559425706809784E+00
             -0.744426884862612E-01
             -0.145354422493958E+01
              0.183728847504527E+00
             -0.661096979463621E+00
             -0.594045093188038E-01
              0.108981553766281E+01
             -0.152686770946119E+01
              0.467172035940520E-01
              0.717755451747388E-01
              0.185730637152121E+00
              0.583230516212083E+00
             -0.243109112979347E+00
              0.162329489499479E+01
              0.688903723500498E+00
             -0.268439036510201E+00
             -0.155436800872570E+00
              0.122994868285642E+00
              0.150452502154680E+01
             -0.945475775794291E+00
             -0.193809700144760E+01
              0.565068632237272E+00
             -0.166826423694534E+00
             -0.304837953925807E+00
              0.374895117625112E+00
              0.144301295003093E+01
              0.795576756005570E+00
             -0.325691290489823E+00
             -0.104832169719818E+01
             -0.249575150407599E+00
              0.526279464034998E+00
             -0.346494232530571E+00
             -0.147056500449444E+01
             -0.190211652266238E+00
             -0.189362305898648E+01
             -0.100206726441155E+01
              0.168995799300302E+01
             -0.101575329120462E+01
             -0.137664245415758E+01
             -0.101670419664780E+01
             -0.773998963595375E+00
              0.664009120013008E+00
              0.164280745575569E+01
             -0.202297092922868E+00
              0.512313693722067E+00
             -0.399160995424651E+00
             -0.131860990766410E+01
              0.993758306059206E+00
             -0.937809947350459E+00
              0.467647879102662E+00
              0.538532863139191E+00
             -0.302182845143512E+00
              0.694287672584275E+00
              0.735679939501067E+00
              0.235002366408279E+01
             -0.185620696591954E+00
             -0.111156272218798E+01
             -0.128280898105193E+01
             -0.382920822147696E+00
             -0.813995364511926E+00
              0.177940866704377E+01
             -0.870870479449506E+00
              0.198230304521457E+00
              0.387472571433909E-01
             -0.372167895772987E+00
             -0.166846627379493E+01
             -0.125453800009383E+00
              0.193800476395829E+01
              0.434227724409261E+00
              0.139916875380790E+00
             -0.115748411040686E+01
             -0.105590483099278E+01
             -0.361887402928020E+00
              0.876856048243448E+00
             -0.514844128697248E+00
              0.194226685937267E+01
             -0.933561057414108E+00
              0.373195924071959E+00
             -0.241388671436997E+00
             -0.119573351868706E+01
              0.134819224176788E+00
             -0.109497095578047E+01
             -0.142749092816264E+01
              0.223491885478225E+00
              0.287096802160152E-01
              0.952251400493280E+00
              0.521516863705556E+00
             -0.684289540168240E+00
              0.412591324119781E+00
             -0.172645579402389E+01
             -0.909010685065130E+00
              0.179163350489490E+01
              0.575873123623221E-01
             -0.975626073176201E-01
             -0.468352365887622E+00
             -0.125763328655584E-01
             -0.244382730875673E+00
              0.178497274869759E+01
              0.799497363723849E+00
             -0.157092160433773E+00
              0.161960450722649E-01
             -0.725113784043754E+00
             -0.228402651853028E+00
             -0.119032016016073E+01
              0.100012973102911E+01
              0.130726786124551E+00
              0.145479018529910E+00
              0.375290563387550E+00
             -0.275208942307932E+00
             -0.444087985179378E+00
              0.192111510441311E+00
             -0.216707482063656E+01
             -0.201307396860056E+00
             -0.194986120854712E+00
             -0.118071821927045E+00
              0.924744430614065E+00
              0.126031877082920E+01
              0.352534441802343E+00
             -0.180163229388805E+01
              0.123427491720449E+01
             -0.459785218761208E+00
             -0.716127186755862E+00
             -0.168573439455014E+01
             -0.507134440788359E+00
              0.123846850249042E+01
              0.650736020751101E+00
              0.307064195644203E+00
              0.680497039638397E+00
             -0.108426376267077E+01
             -0.952039416147787E+00
              0.121155319669093E+01
              0.799801103298632E+00
              0.904401595631963E+00
              0.188790037087041E+00
              0.204793994833111E+00
              0.102401837958717E+01
              0.190065462389046E+01
             -0.335015164939025E+00
              0.786410102130585E+00
             -0.592915731371129E+00
             -0.841633989204074E+00
             -0.677682707407915E+00
             -0.660407541109811E+00
             -0.275429504584441E+00
             -0.917649566182287E+00
             -0.360854035277950E+00
             -0.249536713427733E+01
              0.605825116570339E+00
              0.550768897459539E+00
             -0.676048031543242E-01
             -0.712220332748025E+00
             -0.343161798203369E+00
             -0.110079647248377E+01
              0.103535866686701E+00
              0.152825348317256E+01
             -0.363607769883430E+00
             -0.367471546178031E+00
              0.373195445725205E+00
             -0.989498409550540E+00
              0.164774777582130E+01
              0.292739224784861E+00
              0.118189062757448E+00
              0.100198190552257E+01
             -0.126498605300851E+00
              0.114177938553166E+01
              0.395524628525667E+00
             -0.256080887674264E-01
              0.262183591633099E+00
             -0.198053558764610E+00
              0.128977009170556E+01
              0.135915124664799E+00
              0.417722868828275E+00
             -0.174242513021490E+00
              0.203254254075382E+00
             -0.181817204276711E+01
             -0.671633881076408E+00
             -0.967609742857496E+00
              0.958630081065106E+00
             -0.691438884878949E+00
             -0.106658313492909E+01
              0.115672504429799E+01
             -0.260650485786712E+00
              0.797168862822454E+00
             -0.171227644702793E+01
              0.331943279866620E+00
              0.704531160120010E-01
              0.143420445247857E+00
             -0.271923490333968E+00
             -0.124513361344279E+00
              0.964470770782756E+00
              0.441378059722135E-01
             -0.103505351478824E+01
             -0.423539302826964E+00
              0.347970688659912E+00
             -0.222443039322009E+01
             -0.167023869432229E+01
              0.138795340908890E-01
              0.323776838374535E+00
             -0.998367866111096E+00
              0.299707134149712E-01
              0.198636268429085E+01
              0.546318947301531E+00
             -0.104480999195298E+01
              0.147924875940558E+00
             -0.203845446187881E+00
              0.255773524327231E+00
             -0.704469705297878E+00
              0.455599879331820E+00
              0.454807590472427E+00
             -0.170052601562381E+00
              0.218675685004158E+01
             -0.696975056595628E-01
             -0.589938241367985E+00
              0.603593067680286E+00
              0.825303518481157E+00
             -0.610070098965675E+00
             -0.173396584298016E-01
              0.190264907382116E+01
             -0.177468783308985E-01
              0.101401501897764E+01
              0.316073834270032E+00
             -0.128854954744477E+00
             -0.298368044320300E+00
              0.916465362329468E+00
             -0.114609467763068E+01
             -0.296811760513971E-01
             -0.390289086213325E+00
             -0.771378789992337E+00
              0.220637959459150E+00
              0.492824493804418E+00
             -0.369373106343485E-01
             -0.299474638004984E-01
             -0.812254107339134E+00
              0.282835775381958E+00
             -0.239964917087159E-01
             -0.420831212499417E+00
             -0.382775649693728E+00
              0.311281662744674E+00
              0.250904730557799E-02
             -0.751292266938713E+00
             -0.207747392557280E+01
              0.138310015627385E+00
              0.278157467584160E+00
             -0.955466309903418E+00
             -0.498644027401749E+00
              0.159499952482326E+01
              0.260821451452500E+00
              0.867784505991347E+00
              0.219048683219761E+00
              0.780375619345737E+00
              0.440565818202190E-01
             -0.768862068041001E+00
             -0.254981808852206E+00
              0.100884182081824E+00
              0.611984704891384E+00
              0.142451042986787E+01
              0.954764848450367E+00
              0.607505125099790E-01
              0.228175841759121E+00
              0.117964138064395E+01
              0.549370889064121E+00
             -0.133168477238330E+01
             -0.530747602185884E+00
              0.199616262800386E+00
              0.200171493622679E+00
              0.491428757841575E+00
             -0.981577928248428E+00
              0.857414478116134E-01
              0.811160745224863E+00
              0.939489631286805E+00
             -0.820822262502677E+00
              0.683161824624650E-01
             -0.508387143453488E-01
             -0.404149001596733E+00
             -0.479478881227379E+00
             -0.218587369311807E+00
             -0.263184046345490E+00
              0.220735271248197E+00
              0.813215165682034E+00
             -0.630305759429075E+00
              0.157029245847941E+01
              0.642349510561487E+00
              0.513739127476197E+00
              0.726483260356313E+00
              0.463199403497336E+00
              0.701656857312113E+00
              0.107460190330690E+01
             -0.913663806498798E+00
              0.121709951513194E+01
             -0.220821616587613E+01
              0.607853296896670E+00
             -0.203341506640184E+01
              0.156080994597661E+01
              0.151284572787138E+01
             -0.162093220646039E+00
             -0.900968467778725E+00
             -0.841297086312226E+00
             -0.102884956947132E+01
             -0.127881442866036E+01
              0.106091826479417E+01
              0.831872584466958E+00
              0.471853888307326E+00
              0.478215816955732E+00
              0.888208034605812E+00
             -0.797882373576524E+00
             -0.282828703694832E+00
              0.103211614873197E+01
             -0.238160910296366E+00
              0.969046422959418E+00
              0.151211883507962E+01
             -0.810459232499418E-01
             -0.146976568438647E+01
              0.122456569142338E+00
              0.218899192544259E-01
             -0.202553112112405E+00
              0.595208885770404E-01
             -0.125016834764414E+01
             -0.145449764225434E+00
              0.270117554427468E+00
              0.287639682082000E+00
              0.976872538954542E+00
             -0.824514525251122E+00
              0.973618517241635E+00
             -0.741758598011484E+00
              0.538526912973116E+00
              0.848323378765173E+00
 
 BEEF-vdW xc energy contributions
           1 :   -13.5083863678889     
           2 :    11.1037443651752     
           3 :   -7.62672799646425     
           4 :    4.34525163295926     
           5 :   -1.89280209754265     
           6 :   0.419691407900373     
           7 :   0.208232058775446     
           8 :  -0.298759925669051     
           9 :   0.196470204940708     
          10 :  -0.155627600641731     
          11 :   0.254132254442748     
          12 :  -0.419422753956519     
          13 :   0.527832524244573     
          14 :  -0.506321236261304     
          15 :   0.364011169300156     
          16 :  -0.174582195117177     
          17 :   2.521574864623410E-002
          18 :   3.135956156993203E-002
          19 :  -3.569015898392536E-003
          20 :  -5.558230029635247E-002
          21 :   8.898354566971278E-002
          22 :  -7.482812687897145E-002
          23 :   3.248855717395038E-002
          24 :  -5.062434222024237E-003
          25 :   2.485648651143002E-002
          26 :  -8.568705352119643E-002
          27 :   0.150313177017507     
          28 :  -0.187650333451407     
          29 :   0.188225659264564     
          30 :  -0.156752219453322     
          31 :   -1.84838166042013     
          32 :   -1.16242445711272     

     Writing output data file ./pwscf.save/
 
     init_run     :     67.15s CPU     69.77s WALL (       1 calls)
     electrons    :    573.70s CPU    621.04s WALL (       1 calls)
     forces       :     27.79s CPU     30.07s WALL (       1 calls)

     Called by init_run:
     wfcinit      :      2.23s CPU      2.30s WALL (       1 calls)
     potinit      :     56.30s CPU     58.27s WALL (       1 calls)
     hinit0       :      7.01s CPU      7.15s WALL (       1 calls)

     Called by electrons:
     c_bands      :     99.09s CPU    100.11s WALL (      16 calls)
     sum_band     :     42.01s CPU     48.39s WALL (      16 calls)
     v_of_rho     :    343.84s CPU    374.53s WALL (      17 calls)
     newd         :     16.00s CPU     22.27s WALL (      17 calls)
     PAW_pot      :      2.16s CPU      2.16s WALL (      17 calls)
     mix_rho      :    121.25s CPU    126.43s WALL (      16 calls)
     vdW_kernel   :     33.46s CPU     33.47s WALL (       1 calls)

     Called by c_bands:
     init_us_2    :      1.49s CPU      1.51s WALL (      33 calls)
     regterg      :     95.80s CPU     96.80s WALL (      16 calls)

     Called by *egterg:
     rdiaghg      :      0.03s CPU      0.03s WALL (     132 calls)
     h_psi        :     85.46s CPU     85.49s WALL (     133 calls)
     s_psi        :      2.47s CPU      2.47s WALL (     133 calls)
     g_psi        :      0.29s CPU      0.29s WALL (     116 calls)

     Called by h_psi:
     h_psi:calbec :      2.04s CPU      2.04s WALL (     133 calls)
     vloc_psi     :     80.47s CPU     80.49s WALL (     133 calls)
     add_vuspsi   :      2.48s CPU      2.48s WALL (     133 calls)

     General routines
     calbec       :      2.48s CPU      2.48s WALL (     153 calls)
     fft          :    286.04s CPU    286.07s WALL (    2932 calls)
     ffts         :     52.13s CPU     52.13s WALL (     543 calls)
     fftw         :     75.89s CPU     75.90s WALL (     788 calls)
 
     Parallel routines
 
     PWSCF        :  20m28.05s CPU  22m20.07s WALL

 
   This run was terminated on:  10:21:51   4Jan2023            

=------------------------------------------------------------------------------=
   JOB DONE.
=------------------------------------------------------------------------------=
