
     Program PWSCF v.6.7MaX starts on 20Dec2022 at 16:47:18 

     This program is part of the open-source Quantum ESPRESSO suite
     for quantum simulation of materials; please cite
         "P. Giannozzi et al., J. Phys.:Condens. Matter 21 395502 (2009);
         "P. Giannozzi et al., J. Phys.:Condens. Matter 29 465901 (2017);
          URL http://www.quantum-espresso.org", 
     in publications or presentations arising from this work. More details at
     http://www.quantum-espresso.org/quote

     Parallel version (MPI), running on     1 processors

     MPI processes distributed on     1 nodes
     Reading input from chch2-gas-ensemble.in
Warning: card &CELL ignored
Warning: card / ignored

     Current dimensions of program PWSCF are:
     Max number of different atomic species (ntypx) = 10
     Max number of k-points (npk) =  40000
     Max angular momentum in pseudopotentials (lmaxx) =  3
     file C.pbe-n-kjpaw_psl.1.0.0.UPF: wavefunction(s)  2S 2P renormalized
     file H.pbe-kjpaw_psl.1.0.0.UPF: wavefunction(s)  1S renormalized

     **************************************************************************
     Initializing libbeef V0.1.2 with the BEEF-vdW functional.
     Citation: Wellendorff et al., PRB 85, 235149 (2012).
     **************************************************************************


     IMPORTANT: XC functional enforced from input :
     Exchange-correlation= BEEF-VDW
                           (   1   4  43  14   2   0   0)
     Any further DFT definition will be discarded
     Please, verify this is what you really want


     gamma-point specific algorithms are used

     Subspace diagonalization in iterative solution of the eigenvalue problem:
     a serial algorithm will be used

 
     G-vector sticks info
     --------------------
     sticks:   dense  smooth     PW     G-vecs:    dense   smooth      PW
     Sum       31871   31871   7977              4336823  4336823  542083
 


     bravais-lattice index     =            0
     lattice parameter (alat)  =      43.6291  a.u.
     unit-cell volume          =   69078.1161 (a.u.)^3
     number of atoms/cell      =            5
     number of atomic types    =            2
     number of electrons       =        11.00
     number of Kohn-Sham states=           10
     kinetic-energy cutoff     =      60.0000  Ry
     charge density cutoff     =     240.0000  Ry
     scf convergence threshold =      1.0E-06
     mixing beta               =       0.7000
     number of iterations used =            8  local-TF  mixing
     Exchange-correlation= BEEF-VDW
                           (   1   4  43  14   2   0   0)

     celldm(1)=  43.629136  celldm(2)=   0.000000  celldm(3)=   0.000000
     celldm(4)=   0.000000  celldm(5)=   0.000000  celldm(6)=   0.000000

     crystal axes: (cart. coord. in units of alat)
               a(1) = (   1.000000   0.000000   0.000000 )  
               a(2) = (   0.000000   0.876533   0.000000 )  
               a(3) = (   0.000000   0.000000   0.948948 )  

     reciprocal axes: (cart. coord. in units 2 pi/alat)
               b(1) = (  1.000000  0.000000  0.000000 )  
               b(2) = (  0.000000  1.140858  0.000000 )  
               b(3) = (  0.000000  0.000000  1.053799 )  


     PseudoPot. # 1 for C  read from file:
     /users/bkreitz1/quantum-espresso/potentials/C.pbe-n-kjpaw_psl.1.0.0.UPF
     MD5 check sum: a169b0ebad56f5ec0d79c4633f80bf22
     Pseudo is Projector augmented-wave + core cor, Zval =  4.0
     Generated using 'atomic' code by A. Dal Corso  v.6.7MaX
     Shape of augmentation charge: PSQ
     Using radial grid of 1073 points,  4 beta functions with: 
                l(1) =   0
                l(2) =   0
                l(3) =   1
                l(4) =   1
     Q(r) pseudized with 0 coefficients 


     PseudoPot. # 2 for H  read from file:
     /users/bkreitz1/quantum-espresso/potentials/H.pbe-kjpaw_psl.1.0.0.UPF
     MD5 check sum: ae98473e6dc62675f0d0baffdab24f65
     Pseudo is Projector augmented-wave, Zval =  1.0
     Generated using 'atomic' code by A. Dal Corso  v.6.7MaX
     Shape of augmentation charge: PSQ
     Using radial grid of  929 points,  2 beta functions with: 
                l(1) =   0
                l(2) =   0
     Q(r) pseudized with 0 coefficients 


     atomic species   valence    mass     pseudopotential
        C              4.00    12.01100     C ( 1.00)
        H              1.00     1.00800     H ( 1.00)

     No symmetry found



   Cartesian axes

     site n.     atom                  positions (alat units)
         1           C   tau(   1) = (   0.5236165   0.4359291   0.4384379  )
         2           C   tau(   2) = (   0.4779699   0.4406606   0.4709913  )
         3           H   tau(   3) = (   0.5701201   0.4325751   0.4414714  )
         4           H   tau(   4) = (   0.4806810   0.4423620   0.5184746  )
         5           H   tau(   5) = (   0.4341165   0.4432752   0.4541793  )

     number of k points=     1  Gaussian smearing, width (Ry)=  0.0050
                       cart. coord. in units 2pi/alat
        k(    1) = (   0.0000000   0.0000000   0.0000000), wk =   2.0000000

     Dense  grid:  2168412 G-vectors     FFT dimensions: ( 216, 192, 216)

     Estimated max dynamical RAM per process >       3.31 GB

     Initial potential from superposition of free atoms

     starting charge   10.99989, renormalised to   11.00000

     negative rho (up, down):  7.294E-03 0.000E+00


     %%%%%%%%%%%%%%%%%%%%%%%%%%%%%%%%%%%%%%%%%%%%%%%%%%%%%%%%%%%%%%%%%%%%%%%%
     %                                                                      %
     % You are using vdW-DF, which was implemented by the Thonhauser group. %
     % Please cite the following two papers that made this development      %
     % possible and the two reviews that describe the various versions:     %
     %                                                                      %
     %   T. Thonhauser et al., PRL 115, 136402 (2015).                      %
     %   T. Thonhauser et al., PRB 76, 125112 (2007).                       %
     %   K. Berland et al., Rep. Prog. Phys. 78, 066501 (2015).             %
     %   D.C. Langreth et al., J. Phys.: Condens. Matter 21, 084203 (2009). %
     %                                                                      %
     %                                                                      %
     % If you are calculating the stress with vdW-DF, please also cite:     %
     %                                                                      %
     %   R. Sabatini et al., J. Phys.: Condens. Matter 24, 424209 (2012).   %
     %                                                                      %
     %%%%%%%%%%%%%%%%%%%%%%%%%%%%%%%%%%%%%%%%%%%%%%%%%%%%%%%%%%%%%%%%%%%%%%%%


     Starting wfcs are   11 randomized atomic wfcs
     Checking if some PAW data can be deallocated... 

     total cpu time spent up to now is       71.0 secs

     Self-consistent Calculation

     iteration #  1     ecut=    60.00 Ry     beta= 0.70
     Davidson diagonalization with overlap
     ethr =  1.00E-02,  avg # of iterations =  6.0

     negative rho (up, down):  5.710E-03 0.000E+00

     total cpu time spent up to now is      112.8 secs

     total energy              =     -41.43282342 Ry
     estimated scf accuracy    <       0.60497595 Ry

     iteration #  2     ecut=    60.00 Ry     beta= 0.70
     Davidson diagonalization with overlap
     ethr =  5.50E-03,  avg # of iterations =  1.0

     negative rho (up, down):  3.554E-03 0.000E+00

     total cpu time spent up to now is      150.4 secs

     total energy              =     -41.38319106 Ry
     estimated scf accuracy    <       0.15207329 Ry

     iteration #  3     ecut=    60.00 Ry     beta= 0.70
     Davidson diagonalization with overlap
     ethr =  1.38E-03,  avg # of iterations =  2.0

     negative rho (up, down):  1.923E-03 0.000E+00

     total cpu time spent up to now is      188.7 secs

     total energy              =     -41.40019737 Ry
     estimated scf accuracy    <       0.02095292 Ry

     iteration #  4     ecut=    60.00 Ry     beta= 0.70
     Davidson diagonalization with overlap
     ethr =  1.90E-04,  avg # of iterations =  5.0

     negative rho (up, down):  2.136E-02 0.000E+00

     total cpu time spent up to now is      229.9 secs

     total energy              =     -41.39635749 Ry
     estimated scf accuracy    <       0.01167062 Ry

     iteration #  5     ecut=    60.00 Ry     beta= 0.70
     Davidson diagonalization with overlap
     ethr =  1.06E-04,  avg # of iterations =  6.0

     negative rho (up, down):  6.623E-02 0.000E+00

     total cpu time spent up to now is      270.5 secs

     total energy              =     -41.39622463 Ry
     estimated scf accuracy    <       0.00476604 Ry

     iteration #  6     ecut=    60.00 Ry     beta= 0.70
     Davidson diagonalization with overlap
     ethr =  4.33E-05,  avg # of iterations =  5.0

     negative rho (up, down):  9.238E-02 0.000E+00

     total cpu time spent up to now is      312.2 secs

     total energy              =     -41.39729408 Ry
     estimated scf accuracy    <       0.00246171 Ry

     iteration #  7     ecut=    60.00 Ry     beta= 0.70
     Davidson diagonalization with overlap
     ethr =  2.24E-05,  avg # of iterations =  5.0

     negative rho (up, down):  7.830E-02 0.000E+00

     total cpu time spent up to now is      352.5 secs

     total energy              =     -41.39650558 Ry
     estimated scf accuracy    <       0.00092970 Ry

     iteration #  8     ecut=    60.00 Ry     beta= 0.70
     Davidson diagonalization with overlap
     ethr =  8.45E-06,  avg # of iterations =  8.0

     negative rho (up, down):  6.341E-02 0.000E+00

     total cpu time spent up to now is      395.1 secs

     total energy              =     -41.39621213 Ry
     estimated scf accuracy    <       0.00039332 Ry

     iteration #  9     ecut=    60.00 Ry     beta= 0.70
     Davidson diagonalization with overlap
     c_bands:  1 eigenvalues not converged
     ethr =  3.58E-06,  avg # of iterations = 20.0

     negative rho (up, down):  4.149E-02 0.000E+00

     total cpu time spent up to now is      439.7 secs

     total energy              =     -41.39580119 Ry
     estimated scf accuracy    <       0.00020502 Ry

     iteration # 10     ecut=    60.00 Ry     beta= 0.70
     Davidson diagonalization with overlap
     ethr =  1.86E-06,  avg # of iterations = 20.0

     negative rho (up, down):  2.603E-02 0.000E+00

     total cpu time spent up to now is      485.2 secs

     total energy              =     -41.39578945 Ry
     estimated scf accuracy    <       0.00006740 Ry

     iteration # 11     ecut=    60.00 Ry     beta= 0.70
     Davidson diagonalization with overlap
     ethr =  6.13E-07,  avg # of iterations =  7.0

     negative rho (up, down):  2.135E-02 0.000E+00

     total cpu time spent up to now is      525.9 secs

     total energy              =     -41.39583704 Ry
     estimated scf accuracy    <       0.00004524 Ry

     iteration # 12     ecut=    60.00 Ry     beta= 0.70
     Davidson diagonalization with overlap
     ethr =  4.11E-07,  avg # of iterations =  4.0

     negative rho (up, down):  1.614E-02 0.000E+00

     total cpu time spent up to now is      564.3 secs

     total energy              =     -41.39584699 Ry
     estimated scf accuracy    <       0.00000895 Ry

     iteration # 13     ecut=    60.00 Ry     beta= 0.70
     Davidson diagonalization with overlap
     ethr =  8.14E-08,  avg # of iterations =  6.0

     negative rho (up, down):  1.444E-02 0.000E+00

     total cpu time spent up to now is      603.7 secs

     total energy              =     -41.39585344 Ry
     estimated scf accuracy    <       0.00000185 Ry

     iteration # 14     ecut=    60.00 Ry     beta= 0.70
     Davidson diagonalization with overlap
     ethr =  1.69E-08,  avg # of iterations =  2.0

     negative rho (up, down):  1.295E-02 0.000E+00

     total cpu time spent up to now is      633.1 secs

     End of self-consistent calculation

          k = 0.0000 0.0000 0.0000 (271042 PWs)   bands (ev):

   -19.3615 -14.5036 -11.6413 -10.8675  -7.2637  -4.7518  -1.2411  -0.7889
    -0.3939  -0.3134

     the Fermi energy is    -4.7518 ev

!    total energy              =     -41.39585387 Ry

     total all-electron energy =      -156.924035 Ry
     estimated scf accuracy    <       0.00000075 Ry
     smearing contrib. (-TS)   =      -0.00282095 Ry
     internal energy E=F+TS    =     -41.39303292 Ry

     The total energy is F=E-TS. E is the sum of the following terms:
     one-electron contribution =     -83.18731894 Ry
     hartree contribution      =      42.92496763 Ry
     xc contribution           =     -11.64395352 Ry
     ewald contribution        =      23.61452822 Ry
     one-center paw contrib.   =     -13.10125631 Ry

     convergence has been achieved in  14 iterations

     negative rho (up, down):  1.295E-02 0.000E+00

     Forces acting on atoms (cartesian axes, Ry/au):

     atom    1 type  1   force =    -0.00045935    0.00005011    0.00214726
     atom    2 type  1   force =     0.00438782   -0.00004107    0.00216376
     atom    3 type  2   force =    -0.00068749   -0.00006052   -0.00085062
     atom    4 type  2   force =     0.00054109   -0.00008110   -0.00016845
     atom    5 type  2   force =    -0.00378207    0.00013258   -0.00329195

     Total force =     0.007446     Total SCF correction =     0.000199

     negative rho (up, down):  1.295E-02 0.000E+00

     negative rho (up, down):  1.295E-02 0.000E+00

     negative rho (up, down):  1.295E-02 0.000E+00

     negative rho (up, down):  1.295E-02 0.000E+00

     negative rho (up, down):  1.295E-02 0.000E+00

     negative rho (up, down):  1.295E-02 0.000E+00

     negative rho (up, down):  1.295E-02 0.000E+00

     negative rho (up, down):  1.295E-02 0.000E+00

     negative rho (up, down):  1.295E-02 0.000E+00

     negative rho (up, down):  1.295E-02 0.000E+00

     negative rho (up, down):  1.295E-02 0.000E+00

     negative rho (up, down):  1.295E-02 0.000E+00

     negative rho (up, down):  1.295E-02 0.000E+00

     negative rho (up, down):  1.295E-02 0.000E+00

     negative rho (up, down):  1.295E-02 0.000E+00

     negative rho (up, down):  1.295E-02 0.000E+00

     negative rho (up, down):  1.295E-02 0.000E+00

     negative rho (up, down):  1.295E-02 0.000E+00

     negative rho (up, down):  1.295E-02 0.000E+00

     negative rho (up, down):  1.295E-02 0.000E+00

     negative rho (up, down):  1.295E-02 0.000E+00

     negative rho (up, down):  1.295E-02 0.000E+00

     negative rho (up, down):  1.295E-02 0.000E+00

     negative rho (up, down):  1.295E-02 0.000E+00

     negative rho (up, down):  1.295E-02 0.000E+00

     negative rho (up, down):  1.295E-02 0.000E+00

     negative rho (up, down):  1.295E-02 0.000E+00

     negative rho (up, down):  1.295E-02 0.000E+00

     negative rho (up, down):  1.295E-02 0.000E+00

     negative rho (up, down):  1.295E-02 0.000E+00

     negative rho (up, down):  1.295E-02 0.000E+00

     negative rho (up, down):  1.295E-02 0.000E+00

     negative rho (up, down):  1.295E-02 0.000E+00

     negative rho (up, down):  1.295E-02 0.000E+00
 BEEFens 2000 ensemble energies
             -0.896390291099812E+00
             -0.238434686734674E-01
             -0.169473433942457E+00
              0.601174177342350E+00
             -0.286053133704641E+00
             -0.199466557420616E+00
             -0.668648362262268E+00
             -0.134314559356210E+01
             -0.431455447891187E+00
             -0.473620563715918E+00
             -0.492607890883242E+00
              0.919666551334446E-01
              0.495121605592748E-01
             -0.930537467465200E-01
              0.514518650079472E-01
              0.646411653042197E+00
             -0.258545673385347E+00
             -0.969989790422876E-01
              0.350206851517273E+00
             -0.150436091665549E+01
              0.766884696679733E+00
             -0.245141251413033E+00
             -0.865579287458431E-01
             -0.112384820701616E+00
              0.630442632637145E-01
             -0.552853076069437E-01
              0.120116833081428E+01
             -0.342705180415536E+00
             -0.941708658214182E-01
             -0.780810168201460E+00
              0.899591251328234E+00
             -0.153498987973468E-01
             -0.571494014005517E+00
              0.219158675760305E+00
             -0.375383056287513E-01
              0.429918359240813E+00
              0.361296057407055E-01
             -0.297571282004001E-01
              0.559881017620943E+00
             -0.133943836028087E+01
              0.751998980280622E+00
              0.163868506069653E+00
             -0.197890232945181E+00
             -0.381713882853217E+00
              0.171280803653671E+00
             -0.252575350949265E+00
              0.712113468749781E+00
              0.473434632544780E+00
             -0.230172467345300E+00
             -0.442097308243607E+00
             -0.430121664211800E+00
             -0.521299414543273E+00
              0.345514820555067E+00
             -0.714452240385079E+00
              0.229469300373029E+00
              0.833770836856686E+00
              0.105384354097102E+01
              0.427979200153207E+00
              0.217958559478430E+00
              0.461575768754148E+00
              0.125641018828024E+01
              0.201613789304218E+00
             -0.748337994598394E+00
             -0.116879092806100E+00
             -0.418311346252495E+00
              0.845559195112769E+00
             -0.955797658082170E+00
             -0.801534929953190E+00
             -0.491504728695926E+00
             -0.301819179470217E+00
             -0.500486282769842E+00
              0.381052229456530E+00
              0.195206502563314E+00
              0.227003522852460E+00
             -0.532691992245752E+00
             -0.482859358275855E+00
             -0.816651696651087E+00
              0.406419858631592E+00
             -0.479383095214144E+00
              0.462945967361660E+00
             -0.127797822122101E+00
             -0.376941265936647E+00
             -0.650878943975072E+00
             -0.198375255460082E+00
             -0.242545505809574E+00
             -0.185995247335801E+00
              0.529998446163896E+00
              0.109727364652999E+01
             -0.631818329814278E+00
             -0.107323745153698E+01
             -0.245875287852478E+00
              0.147074217676678E+01
             -0.768243364825008E+00
              0.415119640606031E+00
             -0.161312527187106E+00
             -0.786531235609598E+00
              0.375450309407464E+00
              0.385378925584900E+00
             -0.203042883270109E+00
              0.373045734123958E+00
             -0.331038763251078E+00
             -0.865605030211785E+00
              0.141173235155981E+01
              0.613658598565378E+00
              0.253182701614374E+00
              0.165192964764910E+00
              0.329801606136870E+00
              0.110084671994376E+01
             -0.368179873270178E+00
              0.303337039699020E-01
             -0.187550689754848E+01
              0.229077828771227E+00
             -0.894209625964345E+00
              0.165278529470184E+00
              0.293996484289411E+00
             -0.516791286904783E+00
             -0.668820828981480E+00
              0.214071789593184E-01
             -0.430774540187167E+00
              0.631027407774325E+00
             -0.604818648353958E+00
             -0.140542870282784E+00
             -0.528469530583210E+00
             -0.376544834075823E-01
              0.904350435263339E-01
              0.341485609448017E+00
             -0.413257785024257E-02
             -0.772619564867609E-01
              0.933743474606949E+00
              0.125700517145589E+01
              0.685512928268379E+00
              0.838261754884448E+00
             -0.179473813057140E+00
              0.922967413156623E-01
              0.685949228005578E+00
              0.115666068965355E+00
             -0.104026945442892E+01
             -0.625307236389057E+00
             -0.665114993570094E+00
             -0.402476509385515E+00
              0.345109381374729E+00
             -0.166856562505620E+01
             -0.158261274729206E+00
              0.642553556022201E+00
             -0.556629418588138E+00
             -0.381366633314199E+00
              0.816518316763492E+00
              0.679135644798875E+00
             -0.375325641635937E+00
              0.505066525027676E+00
             -0.347536697894456E+00
              0.519049935681563E+00
              0.887642546753167E-01
              0.118706471684833E+00
             -0.110228613289795E+01
             -0.643716539077284E+00
             -0.119305160836271E+00
             -0.681792153153662E-01
             -0.589724049669364E+00
              0.153855117903138E+01
             -0.125608505263992E+00
             -0.350296712734959E+00
              0.524107348227833E+00
             -0.592631038002956E+00
             -0.532501954978011E+00
              0.452731786699199E+00
              0.176054172325053E+00
              0.141784507726846E+00
              0.243375774815925E+00
             -0.144629337012633E+00
              0.107060056681718E+00
              0.789288746455747E+00
             -0.349478581360129E+00
              0.312490258389709E+00
              0.120668187829033E+01
              0.431222720754901E+00
             -0.410838434681153E-01
             -0.291421690055038E+00
              0.212024723273064E+01
             -0.367216350770978E+00
              0.550165148481011E+00
              0.448603185509655E+00
              0.348308350213433E+00
              0.126781650826795E+01
              0.615582375103199E+00
             -0.683669126865680E-01
              0.354412663908657E+00
              0.727218534765214E+00
              0.514639707276883E+00
             -0.848462420063601E+00
              0.129402895109876E+01
             -0.117784179884920E+01
             -0.118863842629385E+00
              0.755347666045588E+00
              0.270100426887739E+00
              0.772957952003903E-01
              0.349670226647116E+00
              0.194422187699818E+00
              0.431758924863198E+00
             -0.847776784082059E+00
              0.443279709943614E-01
             -0.310664418525022E+00
             -0.600422108408507E-01
             -0.473457479653021E-01
             -0.197391231845229E+00
             -0.905238128211594E-01
              0.113155135688028E+01
             -0.561278480587000E-01
             -0.386025046073664E+00
             -0.103616565904003E-01
              0.201912824744047E+00
             -0.887848478110159E+00
             -0.801399982722618E+00
             -0.452102888454651E+00
             -0.860545972405781E+00
             -0.263852141456325E+00
             -0.545797950136082E+00
              0.235575969889561E+00
              0.409987042956448E-01
             -0.181585521608109E+00
             -0.105875334359880E+00
              0.627190229613057E-01
             -0.152671078942744E+00
              0.889976829147992E+00
             -0.121930713489147E+01
             -0.175824909596805E+00
             -0.173051872267221E+00
              0.202995505357046E+00
              0.319583899789380E+00
             -0.710097928422826E+00
             -0.147813318560071E+00
              0.615024570937564E+00
             -0.253933377978471E+00
              0.182144169498569E+00
              0.443783204355123E+00
             -0.640928006894104E-02
              0.156478968809891E+01
             -0.111479898062430E+00
             -0.470613496143130E+00
             -0.207372159176895E-01
             -0.403215804715870E+00
              0.740085573768209E+00
             -0.704326020083802E+00
              0.212183791397484E+00
              0.629653145761619E+00
             -0.169661211909878E+00
              0.160377935277165E+01
              0.173334581638506E+01
             -0.978266955671108E+00
              0.788111731087125E+00
              0.349478281231913E+00
             -0.778039604788607E+00
              0.230103052853330E+00
              0.618752758200978E+00
              0.664216764317342E+00
              0.615104138743918E-01
              0.280486156785877E+00
              0.104016889384769E+01
             -0.318374213203035E+00
              0.115655918376692E+00
              0.886767855368708E+00
             -0.482383390545340E+00
             -0.362660244358950E+00
              0.838889137899688E+00
              0.428444320141601E+00
              0.104232223784441E+01
              0.498541290188596E+00
              0.210104732931003E+00
              0.332044190279374E+00
              0.596140262677653E+00
             -0.750646988727878E+00
              0.121310762400445E+00
              0.423191703270773E+00
              0.147468874258476E+00
              0.343339154887883E+00
             -0.866253818690815E+00
              0.428590416651099E+00
             -0.584286461255965E+00
             -0.428483094047891E+00
              0.287484425703435E+00
             -0.998194745564291E-01
              0.844406732405643E+00
             -0.150435318830575E+00
              0.405823476296010E+00
              0.404674549101089E+00
              0.104442870461029E+01
              0.704773543842503E+00
              0.711468099259213E+00
              0.172843923259025E-02
             -0.176169200984043E+00
             -0.400759068539605E+00
              0.114627267380740E+01
              0.113427676221051E+01
              0.544474185547152E+00
             -0.407432987477062E+00
              0.670592579706400E+00
              0.361016136830634E-01
              0.208805438183745E+00
              0.971683569009733E+00
             -0.443567407888499E-01
             -0.140679783344086E+00
             -0.268227118393147E+00
             -0.876856355627103E+00
              0.132192794865235E+01
              0.730027501363224E+00
             -0.911812105360603E+00
             -0.315755643505980E+00
              0.329689555369913E+00
             -0.139856450611687E+00
              0.907957086702629E+00
              0.210334682462567E+00
              0.111657443956605E+01
              0.437137952563136E+00
             -0.291433491737397E+00
              0.222303567999859E+00
             -0.101619671553839E+00
             -0.316058793533716E+00
              0.233880289690866E+00
              0.204631290796634E+00
              0.125138313892983E+01
              0.103469632025465E+01
              0.797627235875208E+00
              0.903460205225706E+00
              0.101815362456882E+00
             -0.347929990723626E+00
              0.179533823697001E+00
             -0.446861137227239E+00
             -0.797066988548030E+00
             -0.759086883545539E+00
             -0.452301233814563E+00
             -0.147941560122525E+01
             -0.533445136038385E+00
             -0.118931276726710E+01
              0.289671694423916E+00
             -0.611308762732960E+00
              0.729434112498508E+00
             -0.136904851160844E+01
             -0.406173074388716E+00
              0.486869442623229E+00
              0.295202033809829E+00
             -0.126079691885284E+01
              0.698247055202078E+00
             -0.398595973208414E+00
              0.762290561180450E+00
             -0.359212482425893E+00
             -0.106842722100690E+01
              0.248719242878520E+00
             -0.903667883750113E+00
             -0.861219526165202E-02
             -0.321823225161595E-01
              0.554299623667350E+00
              0.172517119600592E+01
             -0.577476779444845E+00
             -0.514246471482946E+00
             -0.111917116264540E+00
             -0.884781960102128E-01
             -0.109154383547502E+01
             -0.770414717923072E+00
              0.674582725144188E+00
             -0.220301540224097E+00
              0.329113928676339E+00
             -0.670439661404464E+00
             -0.228508884880921E+00
             -0.569924025239554E+00
              0.650534679192629E+00
              0.150133875260725E+00
             -0.341269588027735E+00
             -0.263180513139554E+00
              0.196196104984585E+00
             -0.984093384430835E-01
              0.532473922173673E+00
             -0.364676005172867E+00
              0.184068856669821E+00
              0.468645814263868E+00
              0.153958851088021E+00
             -0.349983057565308E+00
              0.211618961939363E+01
              0.838801689099044E+00
              0.150338313036397E+00
              0.759325382132268E-01
             -0.830055965918501E+00
              0.465230302567321E+00
             -0.108120029305524E+01
             -0.489626901856548E+00
             -0.833406077515781E+00
             -0.250007362237609E+00
              0.826017118639706E+00
             -0.799951740610670E+00
              0.388139754605413E+00
             -0.677610545788419E-01
              0.110613827384989E-01
             -0.410135740576767E+00
             -0.561317047743306E+00
             -0.116807091368930E+00
             -0.416111241924885E+00
             -0.294128999379106E+00
             -0.541799152626441E+00
             -0.592339505163748E-01
             -0.428413244650441E+00
             -0.654392934343139E+00
              0.279241150907834E+00
             -0.142775737021224E+00
              0.344403683381253E+00
              0.109598832905963E+00
             -0.104219050591019E+01
             -0.683648430386280E+00
             -0.720945735101858E+00
              0.417371424196128E+00
             -0.109735680218084E+00
             -0.831180263904699E+00
              0.782525634928824E+00
             -0.586102559927290E+00
              0.822240155319186E+00
             -0.434738278814325E+00
             -0.670644838964880E+00
              0.321670751437251E+00
             -0.100187074446148E+01
             -0.413345207557812E+00
              0.790530762586870E+00
              0.286458322028091E+00
             -0.619462303063933E+00
              0.779766056081253E+00
             -0.220575681121109E+00
             -0.512689148826640E+00
             -0.404022104539038E+00
             -0.724449546016430E+00
              0.368435957925566E+00
             -0.119171405708001E+01
             -0.102783358481413E+01
             -0.106907300600746E+00
             -0.399187730198315E+00
             -0.846534433210042E+00
              0.105634778215485E+01
              0.190760943527664E+01
             -0.261759895039249E+00
             -0.589865213058918E-01
             -0.817037365210912E+00
              0.913303530796614E+00
              0.306626700916917E+00
             -0.296521832613688E+00
             -0.491011567117890E+00
              0.191077888018885E+00
             -0.811504696426614E+00
             -0.139059842726585E+00
             -0.116579062751035E+01
              0.463383093507536E+00
              0.145655653341465E+00
             -0.865370684398350E-01
             -0.182189451891115E+00
             -0.598547316485906E+00
             -0.199480081912860E+00
              0.189931399025879E+01
             -0.208879231707355E+00
             -0.680770039674762E+00
             -0.958833528928368E+00
              0.200237813465260E+00
             -0.537110626052168E+00
              0.146513910558010E+00
              0.465840489539979E+00
              0.681649773495545E-01
              0.510598277768289E+00
              0.265208612221733E+00
              0.805240915761524E+00
              0.321906160376721E+00
             -0.511537835768377E+00
              0.782897190622104E+00
              0.469715638016916E+00
              0.174593269639635E+00
              0.494566335887832E+00
             -0.455412919321704E+00
              0.976335047811295E+00
              0.381858563040211E+00
             -0.487132565641235E+00
             -0.772037234827457E-01
             -0.225011355929523E+00
              0.194311595546109E+00
             -0.337917722226815E+00
             -0.190002057512802E+00
             -0.179319513609133E+00
              0.111066905304723E+01
              0.811510152073683E+00
             -0.863759090578819E+00
             -0.124811721058645E+00
             -0.675999410603613E+00
             -0.169746739152854E+00
             -0.290188640300242E+00
              0.161772245519151E+00
             -0.425446625874376E-01
             -0.401755229529091E+00
              0.253505571937716E+00
             -0.132438789371404E+00
             -0.864036838126842E-01
              0.119987898922764E+01
              0.193061140601342E+00
             -0.116016597454885E+01
             -0.515057658358410E+00
              0.133302294822561E+01
              0.317097226638051E+00
             -0.115530053527878E+00
              0.151490032145657E+01
             -0.213883208090194E+00
             -0.994843572201698E-01
             -0.183104054412761E+00
              0.224892515378739E+00
              0.474900029562541E+00
              0.336686214699626E-01
              0.393162528775448E+00
             -0.140087239900293E+00
             -0.574684422480050E+00
             -0.537125174027218E+00
             -0.660311802674153E+00
              0.550656108553023E+00
              0.204508799065972E+00
              0.520934288545819E+00
              0.225280980407940E+00
              0.125017854539254E+01
              0.286212639394409E+00
             -0.105307835235008E+01
             -0.455493580783302E+00
              0.179048073950443E-01
             -0.385253426696337E+00
              0.883302891534604E+00
             -0.217958957273943E+00
              0.228473318021511E+00
              0.773254349366030E+00
             -0.112634398895603E+01
              0.202715353644785E+01
              0.273209391842327E+00
              0.334534916610114E+00
              0.531109328488016E+00
              0.342486320401481E-01
             -0.260045133932829E-01
              0.435324886857207E+00
             -0.486174539461608E+00
              0.120790101251243E+01
              0.105753155572369E+01
             -0.533753910823042E+00
              0.238346334199635E+00
              0.998051432813412E+00
             -0.292983603006353E+00
              0.299137790705919E+00
              0.429522299190436E+00
              0.564201708132135E+00
             -0.101362763533047E+01
             -0.629737839182472E-01
             -0.342816112792748E+00
             -0.857218463795215E-01
             -0.108909373926209E+00
              0.119990698889482E+00
             -0.162740059055875E+00
             -0.423374277923335E+00
              0.250826271814074E+00
              0.734417068423836E-01
              0.733483412629645E+00
             -0.650377818222232E+00
              0.651082219825543E+00
              0.709878014185476E+00
             -0.973041338568690E-01
              0.997886813546125E+00
             -0.925037014012364E+00
             -0.141947360346525E+01
             -0.117643237731540E+00
             -0.905425430839095E-01
             -0.400028784804984E-02
              0.107652805783245E+01
             -0.241469146612394E-02
              0.593267247087093E+00
              0.844682372586769E+00
              0.538182866287276E+00
             -0.850555802799082E-01
              0.805730110004437E+00
             -0.234792923155104E+00
             -0.548264868795716E+00
             -0.472706755371051E+00
              0.154046639596873E+00
              0.471088768448291E+00
             -0.289419709218228E-01
              0.450636517923077E+00
              0.150363442080010E-01
              0.748110628683908E+00
              0.209578079953022E+00
              0.108994416157058E+00
              0.229602873991928E-01
              0.395182324008784E+00
              0.567278374397159E+00
              0.191072433975362E+00
             -0.511393367934021E-01
             -0.751447239319309E+00
              0.415089070039427E+00
              0.288397360978857E+00
              0.442241573160763E+00
              0.410469040457849E+00
              0.504665444069199E+00
             -0.132119818833146E+00
              0.488105434273916E+00
             -0.418867901283900E+00
             -0.249981393590923E-01
             -0.719194907039747E+00
             -0.481215202222339E+00
              0.600278374487136E+00
             -0.120918744493279E+01
              0.320232394549815E+00
              0.188712938431841E+00
              0.119938050156647E+01
             -0.150038816139081E+00
              0.462485349095274E+00
             -0.159684466447947E+00
             -0.685961254997776E+00
             -0.889321441792353E+00
             -0.227765532979728E+00
             -0.126351209198675E+01
              0.983789586655934E-01
             -0.284632623227879E+00
              0.458246439393282E+00
              0.350416481070972E+00
             -0.404894636326146E+00
             -0.428791927509550E+00
              0.596152704908234E+00
             -0.791482859246404E+00
             -0.193317076532812E+00
             -0.217793652192349E+00
              0.381881539283327E+00
              0.908746067279509E-01
              0.479470894364824E-01
             -0.195875321984483E+00
              0.733344236140495E+00
             -0.858590072211546E+00
              0.878994788875938E-01
              0.829358448261961E+00
             -0.508562366778074E+00
              0.549111403076266E-01
              0.341778482553963E-01
             -0.886512340179942E+00
             -0.504397355671019E+00
             -0.103207136183452E-01
              0.439857385298162E+00
              0.486674405559204E+00
              0.666707995069231E-01
             -0.171392208173604E+00
              0.224699764400989E+00
             -0.546140509801285E+00
             -0.791622112021129E-01
             -0.732985519069938E+00
             -0.364409212334945E+00
              0.696791485567298E+00
             -0.421869831049762E+00
              0.979472023477686E+00
             -0.333631489400676E+00
              0.449683313144902E+00
              0.352757070643737E+00
             -0.821627350560475E+00
             -0.340529932876860E+00
              0.140680076712812E+00
             -0.587153365856580E+00
             -0.578977426170218E+00
             -0.124067822254106E+01
             -0.762018528285426E+00
             -0.674687830403817E+00
             -0.624730712423436E+00
             -0.220327943729703E-02
              0.358618616775396E+00
              0.181962105384010E+00
              0.397816005860460E+00
             -0.812466968316547E+00
              0.181225932701619E+00
              0.414116699002244E+00
             -0.951271294131421E+00
             -0.773318088149669E+00
             -0.540811013498614E+00
             -0.474156131894793E+00
              0.187014607913000E+00
             -0.504634589586352E-01
             -0.566594622549191E+00
              0.368794665046038E+00
             -0.326879835774787E+00
              0.726296032814834E+00
             -0.121205119302648E+01
              0.893782921411195E+00
             -0.178376992454695E+00
             -0.621405603056185E+00
             -0.377753726929457E+00
             -0.239845845061193E-01
              0.684616821273226E+00
             -0.951585190079985E+00
             -0.170796296353831E+00
             -0.224016077735729E+00
              0.551727212617577E+00
              0.110173388094786E+01
             -0.139491775277752E+01
              0.126070329926997E+01
              0.514044364124893E+00
             -0.105511723682576E+01
             -0.420714837509941E+00
              0.109760494008413E+01
              0.781163211989624E+00
             -0.299118874361485E+00
             -0.104945332714285E+00
              0.266248184543996E+00
              0.108979740119373E+01
             -0.832557406519693E+00
              0.167217035092497E+00
             -0.105895292449516E+00
              0.352431629883046E+00
             -0.963156324959342E+00
             -0.241054033188224E-01
             -0.355566440662231E+00
              0.670643723913695E+00
              0.519306815740403E+00
             -0.123934422916233E+01
             -0.644812588211591E+00
             -0.280873881853197E+00
             -0.619955265277261E+00
             -0.168461002679720E+00
             -0.231699377985715E+00
              0.637398321301276E+00
              0.595100266366583E+00
             -0.948395185504269E-02
             -0.607051856313817E+00
             -0.120022346841132E+01
              0.717446709209096E+00
             -0.626125578100662E+00
             -0.530175661946478E+00
              0.106363548104852E+00
             -0.521825913766070E+00
             -0.553883248182603E+00
             -0.443129239473598E+00
             -0.728084574972986E+00
             -0.319187469052032E+00
             -0.681502618029136E+00
              0.749598068851129E+00
              0.798912365107945E+00
             -0.166269772087636E+00
             -0.278652812485102E+00
              0.504657915305824E-01
              0.583373685315934E+00
             -0.116144112165583E+01
             -0.326301409590442E+00
              0.684749759151847E+00
              0.100425523464824E+01
             -0.127126316006532E+00
              0.137543509026067E+00
              0.728069585192983E+00
              0.209232411958488E+00
              0.444028297474222E-01
             -0.530516728573811E+00
              0.187928116098229E+00
             -0.442623853822329E+00
             -0.869170247992126E-01
             -0.298606184726238E+00
             -0.187489304887431E+00
              0.345712664313492E+00
              0.110076017472940E+01
             -0.111460742828147E+00
              0.217947489669394E-01
             -0.126507997753977E+01
             -0.249753401140923E+00
             -0.484915497796080E+00
             -0.272514452822339E-01
             -0.669088007421354E+00
              0.126652684953309E+01
              0.120450747675506E+01
              0.260349212591715E+00
             -0.339883640118029E+00
              0.262580025741432E+00
              0.267537915989908E+00
             -0.637502054828761E+00
             -0.133795968269928E+00
              0.286077983830566E+00
              0.161353088412836E+00
              0.694101830165174E+00
              0.527880619441728E+00
             -0.285075286983972E+00
              0.280972490587130E+00
             -0.134727809074100E+01
             -0.179452340369847E-01
              0.124762297091924E+01
              0.266725890978684E+00
             -0.412003979016715E-01
              0.364169472827361E+00
             -0.322746470950573E+00
              0.119139651386544E+01
             -0.292726622835338E+00
              0.105671175806553E+01
              0.534071887277428E+00
             -0.628155790121745E+00
              0.462234964553830E+00
             -0.383139010178682E+00
             -0.939375320717115E+00
             -0.114418469665792E+00
             -0.743102700130959E+00
             -0.719132228152003E+00
             -0.138830542094261E-01
              0.531167193815397E+00
             -0.207559532068349E+00
             -0.415957233527815E+00
              0.101695073424080E+00
             -0.893128147608897E+00
             -0.362080448710398E-01
             -0.121242036865143E+01
              0.714509046596460E+00
             -0.565790424306594E-01
             -0.673925608291178E+00
             -0.209743581183166E+00
              0.240320689972034E+00
             -0.537449090060603E+00
             -0.603046142298689E+00
              0.126575639747569E+01
             -0.394462598382334E+00
             -0.501900240736727E+00
              0.453411606774386E+00
             -0.321000947585885E+00
              0.801521812725094E+00
             -0.333469042485532E-01
              0.270048492550754E-01
              0.152858376731824E+01
             -0.104968918096995E+00
             -0.538052935728311E+00
             -0.671070493780345E+00
             -0.704672250484132E+00
             -0.524689041105870E+00
              0.401212403578050E+00
              0.444195831742813E+00
              0.395018699245946E+00
              0.102375088550454E+01
              0.772883814148617E-01
              0.327764593237936E+00
             -0.786267401482100E+00
              0.252547056180159E-01
             -0.205483944815999E+00
             -0.383545574271764E+00
             -0.108826550190673E+00
              0.451591321944234E+00
              0.525084679685258E+00
             -0.412794114491599E-01
              0.189540415145032E+00
              0.375720955166150E+00
              0.465830320190558E+00
             -0.323537699300678E+00
             -0.128874903718255E+00
              0.414715360634199E-02
             -0.363175212905475E+00
             -0.335771671122105E-01
             -0.572127358111294E+00
              0.109777647653114E+01
              0.852056608163105E+00
             -0.265439196944687E+00
              0.238083736026432E+00
             -0.857963372256324E-01
             -0.455260538223835E+00
              0.520809933546629E+00
             -0.131561236334084E+00
              0.504252286466442E+00
             -0.650568126776021E+00
              0.243769611104085E+00
             -0.106232431340286E+00
             -0.738447377136497E+00
             -0.332184069103892E+00
              0.329178309758855E+00
             -0.136812404068926E+01
              0.527367482426344E+00
              0.637817567933690E+00
             -0.143009567051019E+00
             -0.106866349630196E+00
             -0.541285445996200E-01
              0.370048512254975E+00
             -0.473660887253010E+00
              0.423444704559449E+00
              0.447594409491888E+00
             -0.123157501382864E+01
             -0.511018123083490E+00
              0.335498285565944E+00
             -0.173314949965630E+00
              0.694309643958070E+00
             -0.858658271985931E+00
             -0.157113519383204E+00
             -0.547036958133615E+00
             -0.181083392534032E+01
              0.109617630043509E+01
             -0.820841606867030E+00
             -0.940652861836316E+00
              0.858290642049788E-01
              0.178156712628685E+01
              0.103926930940240E+00
             -0.468951965462417E+00
             -0.199058328029444E-01
             -0.466744823884695E-01
             -0.117636894798083E+01
             -0.749728520833579E+00
              0.119359290306731E+01
             -0.181743194689807E+00
             -0.489863348108924E+00
              0.666342761913938E+00
             -0.450671189551504E+00
              0.450660459008373E+00
              0.663817418570581E+00
             -0.719400714674538E+00
             -0.391966064980140E+00
             -0.436451287966201E+00
             -0.249131389319703E+00
             -0.268910882149353E+00
             -0.273363391898420E+00
              0.279577543479064E+00
             -0.493524374122614E+00
              0.377727335217134E+00
              0.750598960145124E+00
             -0.745070290485452E-01
             -0.294613588282739E+00
              0.216322182932496E+00
              0.749920457681680E+00
              0.765788856380377E+00
              0.160534699425135E+00
             -0.161401127688157E+00
             -0.162709726100775E+00
             -0.740167144192927E+00
              0.565008634267148E+00
             -0.338962663024964E+00
              0.318695817884795E+00
             -0.180388023123143E+00
              0.352815604580458E+00
              0.237890471499456E+00
             -0.113097705048310E+01
             -0.347531163665449E+00
             -0.108626480093529E+01
             -0.562703062786500E+00
              0.522551506023157E-01
             -0.274438878895488E+00
              0.492341869311038E+00
             -0.392719823198488E+00
              0.516809890154282E-01
              0.942261333559316E-01
              0.958943897430218E+00
              0.495799711636888E+00
             -0.456281641626625E+00
             -0.408313547435375E-01
              0.215581931536079E+00
              0.511313440932060E+00
             -0.867335962913707E-02
              0.790065196488616E+00
              0.378749154562999E+00
              0.124505476777782E+01
              0.494940289898438E-01
              0.851121009199712E+00
             -0.379961023293260E+00
             -0.538994241392021E+00
              0.233509131037382E-01
              0.152387999429928E+00
              0.303328974209275E+00
             -0.306217211688788E+00
             -0.145278608152047E+00
              0.321816376520845E+00
             -0.660281985921514E+00
             -0.836810683240808E+00
              0.110234582996064E+01
             -0.854551125805187E-01
             -0.496944107950239E+00
             -0.785745496881147E-01
             -0.193768102685808E+00
              0.624945460216959E+00
              0.501207555410364E+00
             -0.283905385891213E+00
              0.186125490143030E-02
             -0.355401754185320E+00
             -0.494536880271526E+00
             -0.320716384498198E+00
             -0.135109745590377E+01
              0.280166859767244E-01
             -0.886643984372322E+00
             -0.819915899442546E+00
             -0.510246056616068E+00
              0.315429656233394E+00
             -0.530857205611110E+00
              0.337445070328334E+00
             -0.907466730759544E+00
              0.230825462219819E-02
             -0.584144255569204E+00
              0.110372070665991E+00
              0.104253593369708E+00
              0.501200010522084E+00
             -0.290761803487532E+00
             -0.260427757520353E+00
              0.450426016598294E+00
              0.824141835688674E+00
              0.446290288453869E+00
              0.156647509294691E+00
             -0.103800877704283E+01
             -0.225931005526409E+00
             -0.380944920975670E+00
             -0.850498823640582E+00
              0.597321320995160E+00
             -0.481460236507242E+00
             -0.106749581890553E+00
             -0.391639502886697E+00
             -0.136157496147573E+01
              0.781218572229723E+00
             -0.257414442078426E+00
              0.532631667627782E+00
             -0.102991117752018E+01
              0.908265472021270E+00
              0.853726267145571E-01
             -0.348225908280581E+00
              0.153488119829803E+00
             -0.270776305200048E+00
             -0.856168547326871E+00
              0.241554000112667E+00
              0.563212299157702E+00
             -0.256298024888686E-01
             -0.473876808546070E+00
             -0.224330093231864E+00
              0.294323913002787E+00
              0.518659157981568E+00
              0.849171260263931E+00
              0.307794065290642E+00
             -0.318580871051144E+00
              0.140481102301890E+01
              0.281736020798761E+00
              0.668111279225621E+00
             -0.231583091625706E+00
              0.405725102667277E+00
              0.339103104913843E+00
             -0.853797713691474E+00
             -0.312343667864229E+00
             -0.557860331119173E+00
             -0.591433033532161E+00
             -0.171020725135140E+00
             -0.106082534205767E+00
             -0.656086961169643E+00
             -0.152587429369468E+01
             -0.369203150517117E+00
              0.184340419323756E+00
              0.773862364969684E-01
              0.229023989488554E+00
              0.543935839418319E+00
              0.133303294138366E+00
              0.430616797872416E+00
             -0.598522405512074E+00
              0.593593061919787E+00
             -0.529904087213347E+00
             -0.914414451273267E+00
              0.282390479482391E+00
             -0.586849481888395E+00
             -0.546209225159260E+00
             -0.220100302991381E+01
             -0.974787239814983E-01
              0.116992330315457E+01
              0.550954418253609E+00
             -0.142178189248449E+00
             -0.144543468298005E+00
              0.629308104121731E+00
              0.876688032971239E+00
             -0.538902346096587E+00
             -0.178415758565304E+00
             -0.506962710042120E+00
             -0.458688539958302E+00
             -0.401100556992707E+00
              0.137202072558172E+00
              0.953380639976092E+00
             -0.899004185847426E+00
             -0.753483009049766E+00
              0.562876048453163E-01
             -0.211775999787362E+00
             -0.241045275199178E+00
             -0.122570753278813E+01
              0.882413505132451E+00
              0.264807862936867E+00
              0.129804479963677E+00
              0.721504208581983E+00
             -0.457456365331077E+00
              0.468782393293234E+00
              0.396028852858405E+00
              0.123456488390197E-01
             -0.117343905096869E+00
              0.109934283644283E+00
             -0.216565759457397E+00
              0.736226543665368E+00
             -0.540443404608696E+00
              0.646578337046846E+00
              0.127556284230399E+00
              0.246326725581358E+00
              0.270848086656683E+00
             -0.111925500572853E+01
              0.148170707564148E+00
             -0.923144817980138E+00
             -0.661253035206719E+00
             -0.653727697627555E+00
             -0.738756392020952E+00
             -0.320111159286540E-04
              0.270907407179347E+00
              0.690218205261772E+00
              0.959734226367212E-01
              0.206412100776160E+00
             -0.955433207734220E+00
             -0.386082152248156E+00
              0.444939776739022E+00
             -0.627564517121130E-01
             -0.550373026754887E-01
             -0.134769283395480E+00
              0.489643702846985E+00
             -0.124937246587780E+01
              0.185715540800872E+00
              0.280487176535596E+00
              0.533880620623282E+00
              0.505244085455894E+00
             -0.779039240301927E+00
              0.231376562137868E+00
              0.969290375306238E-01
              0.984354011864337E-01
              0.916188467076839E-01
             -0.275681043500295E+00
             -0.613672215258147E+00
              0.248660080155362E+00
              0.796898757025390E+00
             -0.299865657308196E-02
              0.192548657992540E+00
              0.168463790751223E+00
             -0.434041863190929E+00
             -0.464244084508632E+00
             -0.170277254476816E+01
             -0.517705936422259E+00
             -0.824323333473064E+00
             -0.863094631662333E-01
             -0.949140671903706E+00
              0.104144176272858E+01
             -0.473251992056064E+00
             -0.762275400696063E+00
             -0.216222330908395E+01
              0.925271066768568E+00
              0.206890651870149E+00
              0.162084321258956E+00
             -0.838470653223729E+00
              0.531137170592313E-01
             -0.232109888124636E+00
             -0.428570200749464E+00
              0.112218662150213E+00
              0.449047669592289E+00
              0.646077542040826E-01
             -0.291558209033498E+00
              0.645774971504149E-01
              0.187640297358631E-01
              0.132531093088371E+00
             -0.929779883214541E+00
              0.102348285730803E+01
             -0.570845023336131E+00
             -0.366297237670619E+00
             -0.731623916071935E+00
             -0.153126429971908E+01
              0.568098330126665E-01
             -0.807125916076587E+00
             -0.241943895134327E+00
              0.420677428137413E+00
             -0.375565857995615E+00
             -0.172612828609404E+00
             -0.182177303740457E+00
             -0.262862454241442E+00
              0.510737200930129E-01
              0.713958525518938E+00
             -0.688598203161747E+00
              0.145103581953154E+01
             -0.359362992316727E+00
              0.442213182903473E+00
             -0.267783547293373E+00
              0.159232969636146E+00
             -0.167017466784526E+00
              0.608134395046027E+00
              0.861706189540427E+00
              0.247808671206720E+00
              0.589306890378460E+00
             -0.391355957806580E+00
             -0.113306594409805E+00
             -0.325342148751526E+00
              0.875027725292026E+00
              0.758029127458007E+00
              0.549354322630425E+00
             -0.173317717159064E+00
             -0.344317814417868E+00
              0.332398739127998E+00
             -0.409444433594326E+00
             -0.204080459484583E+00
             -0.774617431899854E-01
             -0.503187120842641E+00
              0.669234710405977E+00
             -0.161890636441514E+00
              0.489631974214208E+00
              0.323483915428936E+00
              0.205115325779453E+00
             -0.466144936331201E+00
              0.333603200434373E+00
             -0.186719707779748E+00
             -0.941848654605089E-01
             -0.822386622969340E-02
             -0.657676685102008E+00
              0.106802725870397E+01
             -0.363816954922695E+00
              0.449800821854307E-02
              0.348144461344466E+00
              0.294869754496731E+00
              0.107674602252780E+01
             -0.302909800796138E+00
              0.103216977454255E+01
              0.915504976202486E+00
             -0.127786279223226E+01
              0.907432714068519E-01
             -0.248435344584878E+00
              0.169538162070584E+00
              0.602268210061752E-01
              0.302102408369350E+00
              0.888775150698146E+00
              0.139212996936815E+01
             -0.100142488694321E+01
              0.104595762877766E+01
             -0.139951261782289E+01
             -0.120570785439521E+01
             -0.209070612519856E+00
              0.131907989848967E-01
              0.109945912999171E+01
              0.437182809540401E+00
             -0.174433031714069E+00
             -0.113070101261507E+01
              0.916883276984480E+00
             -0.559053818716380E+00
              0.246232159382611E-01
             -0.776207744865336E-01
              0.179407201946910E+01
             -0.297664716010284E+00
             -0.145111259891649E+01
              0.416267944015178E+00
             -0.223738848425932E+01
              0.177605908690221E+00
             -0.534364837907915E+00
             -0.241013802386321E+00
             -0.350844741294236E+00
             -0.823530814451712E+00
              0.498037654383461E+00
             -0.506930919773745E+00
             -0.196237997655031E+00
             -0.103926609921555E+01
             -0.511138021161148E-01
             -0.755800979638653E+00
             -0.106837549177941E+01
             -0.143423985460831E+01
              0.108572637047636E+00
             -0.523371749369689E+00
              0.160594500043543E+00
             -0.191403110541629E+00
             -0.115213069191789E+01
             -0.889199039843308E+00
             -0.789166712735205E+00
             -0.820436468840724E+00
              0.716721463565893E+00
              0.690944184637394E-01
             -0.687528454364614E+00
             -0.354111775753680E+00
             -0.391682208512361E+00
              0.583631804732257E+00
             -0.413297181872067E+00
             -0.478104396240164E-01
             -0.452492107296407E+00
             -0.545910992958550E+00
             -0.581809411143054E+00
              0.557060815261724E+00
             -0.168912672178841E+00
             -0.127453635664911E+01
              0.106660473026321E+01
              0.617686764484027E+00
              0.348935533668673E-01
             -0.113860381918187E+01
             -0.102386597938729E+01
              0.618917156638155E-01
              0.625805349653419E-02
             -0.472661947959033E+00
             -0.594182962494265E+00
              0.404971510024822E+00
             -0.606217429940816E-01
              0.373987446731991E+00
              0.657100943056037E+00
              0.483572229678050E+00
              0.327353445393674E+00
              0.293003095961994E+00
             -0.308446595109483E+00
             -0.217804687343570E+00
             -0.259347684673780E+00
             -0.535893197330884E+00
             -0.642455743779861E+00
             -0.825045327100802E+00
             -0.487393480095095E+00
             -0.177689379296141E+00
             -0.101254825963194E+01
             -0.254720825053450E+00
              0.507777562486476E+00
             -0.119125649971671E+01
              0.525029801026037E+00
              0.426340825086125E+00
             -0.100673366021859E+01
             -0.764921741801843E+00
             -0.326939024649629E+00
              0.156551030303008E+00
             -0.575011588315589E+00
              0.105073888917909E+01
              0.924304557846319E+00
             -0.107523023767744E+01
              0.559205948061717E+00
              0.501874044114859E+00
              0.141580632315133E+00
              0.249609486129190E+00
             -0.590216585467158E+00
             -0.219404573648134E+00
              0.944085923104074E-01
              0.287539061049604E+00
              0.562869673196742E+00
             -0.747846120937786E+00
             -0.164475108270421E+00
              0.217405863601119E+00
              0.165715236965724E+00
             -0.485254336673011E+00
              0.259185889924726E+00
             -0.339138338616727E+00
             -0.247193620578730E+00
             -0.183864126573692E-01
             -0.856802618298677E+00
             -0.948638279103775E-02
             -0.993786291436711E-01
             -0.215386158666720E+00
              0.239123405118457E+00
             -0.721552471024807E+00
              0.815608376275493E+00
             -0.291592715243440E+00
             -0.186516898313000E+01
             -0.118880784329416E+01
              0.471688630444368E+00
             -0.592518961241644E+00
             -0.300779386473061E+00
             -0.308561006510759E+00
             -0.272531610156671E+00
             -0.143862538362657E+01
              0.882067453613189E-03
             -0.855331889231833E+00
             -0.471743598331311E+00
              0.260946923407888E+00
              0.111221842287975E+01
              0.729165493457926E-01
              0.427425809483699E-01
              0.834378828837705E+00
             -0.821399145532995E+00
              0.374646502799931E+00
              0.751629578463859E-01
             -0.748759221504458E+00
             -0.445667878798451E+00
              0.258467558553442E+00
              0.479199466227336E-01
              0.245890278212334E+00
              0.190538966240527E+00
             -0.324608935880154E+00
             -0.473769793766142E+00
             -0.689835350340037E+00
              0.689739343237846E+00
             -0.948884300216401E+00
             -0.702197022616071E+00
              0.203879827837698E+00
             -0.115346242726707E+01
              0.334450625866996E+00
              0.830366309105877E+00
             -0.173686402329251E+00
              0.293627711679664E+00
             -0.486559811724270E+00
             -0.312111712775180E+00
              0.146574701553090E+00
              0.496794593529381E+00
             -0.499450745103306E+00
              0.298863333288629E+00
             -0.201353751710994E+00
              0.124348572921725E+00
              0.244372221343556E+00
              0.118408838654541E+00
             -0.183342677522779E+00
             -0.138361834306790E-01
              0.142385647161234E+00
              0.390017071208637E+00
             -0.977878615594796E+00
             -0.337096932946110E-01
              0.723378541738541E+00
             -0.120346472371306E+01
              0.456328865371494E+00
             -0.156116748554006E+01
             -0.162644763800761E+00
             -0.194621832874257E+00
             -0.330689334643566E-01
             -0.182194223564338E+00
             -0.383716804548611E+00
             -0.157957447049016E+00
              0.156752386131192E+00
             -0.360927860707283E+00
              0.145912705453177E+00
              0.126373980910696E+01
             -0.774810473373961E+00
             -0.345881180245528E+00
              0.591689047003591E+00
              0.285098515467407E+00
              0.596255074889777E+00
              0.289299463200860E+00
              0.209394432225389E+00
             -0.194251112924019E+00
             -0.681776591706115E+00
             -0.626160399132615E+00
             -0.504380030693629E+00
              0.931025158290062E-01
             -0.587997454549134E+00
             -0.155201662001349E+00
              0.804867549981405E-01
              0.339710480475495E+00
             -0.880600604144074E-01
              0.822276609085934E+00
             -0.932605634080761E+00
             -0.102238436930975E-01
             -0.108289829114833E+00
              0.439194398491648E+00
             -0.583753016715179E+00
             -0.383636980744954E+00
              0.159278088567481E+00
              0.615846328722716E+00
              0.105528190879869E+01
              0.406492387949771E+00
              0.644183487801171E+00
             -0.332486913811101E+00
              0.875494356881043E+00
              0.868046359891928E+00
             -0.804561842271667E-02
              0.402603735077272E+00
              0.516405912912689E+00
             -0.279049914956515E+00
              0.220503911115602E+00
              0.911210090162778E+00
             -0.280756609144436E+00
             -0.799304057179633E-01
             -0.863415956474900E+00
              0.297137841044877E+00
             -0.221815381330479E+00
              0.304765497834443E+00
              0.657521693412200E-02
             -0.536635754784980E+00
              0.631399544773840E+00
              0.539410307947204E+00
             -0.445221566850858E+00
              0.236082614728029E+00
             -0.832735891885048E+00
             -0.758630738537355E+00
              0.342190448482313E+00
             -0.939993579110618E+00
             -0.489008827517559E+00
             -0.727148576703307E-02
              0.119640248681930E+01
             -0.312104602606766E+00
             -0.154981721030824E+00
             -0.292605749895727E+00
              0.154358702815908E+01
              0.257213298292657E+00
             -0.587712115406026E+00
              0.986324822704663E+00
              0.862451243100063E+00
              0.456610994522851E+00
              0.111321792157248E+01
              0.121794494675790E+01
             -0.347607315048651E-01
             -0.393782704235197E+00
             -0.336369046724545E+00
              0.387074432604389E+00
              0.541823857506299E+00
             -0.104082812331621E+00
             -0.336603698526033E+00
             -0.783940563224073E+00
             -0.267915134757050E+00
             -0.644496297710758E+00
              0.471790152646803E+00
              0.249334156770918E+00
              0.836218548705075E+00
              0.199417445272386E+00
             -0.314858000527590E+00
             -0.121982273332515E+00
              0.547102980329387E+00
              0.138389634310645E+00
              0.867066232344511E+00
              0.761097397687961E+00
             -0.108618573398813E+00
             -0.125914634068820E+00
             -0.141631411005869E+01
              0.675194527259333E+00
              0.649346189057809E-02
              0.806825144459846E+00
             -0.367914851954153E+00
             -0.924461032664060E+00
              0.265138368924991E+00
              0.101195971457392E+01
             -0.347833264364064E+00
              0.907417073089643E+00
             -0.990914047308359E+00
             -0.364354390049426E+00
             -0.119675334629494E+01
              0.208844687938195E+00
              0.505290386591906E-01
              0.130315771461778E+00
             -0.864975590919409E+00
              0.130127898164710E+01
              0.748000297633442E+00
              0.799311516915582E-01
             -0.773361313885369E+00
              0.279819835935110E+00
             -0.236961609260553E+00
             -0.217582269309828E+00
             -0.387655792146767E+00
              0.226412124406136E+00
             -0.252939203078765E+00
             -0.252806094761076E+00
              0.332503633087764E+00
              0.319823125724887E+00
             -0.124789215607076E+01
              0.272362589026764E+00
              0.913317005666819E+00
              0.585871714112333E+00
             -0.177055890070449E+00
             -0.379095355837097E-01
             -0.508398510113891E+00
              0.765115803932637E+00
              0.110115558012635E+00
             -0.352979824020685E-01
             -0.849842343246356E-01
              0.149885527342498E+01
             -0.113646851726314E+00
              0.288599270701606E+00
              0.103691722938075E+01
              0.132052132537047E+01
              0.817668501711053E+00
              0.534493603814830E+00
             -0.889277567538738E+00
             -0.646380332930341E+00
              0.501323693050714E+00
              0.815252190609437E-01
              0.424741355388401E+00
              0.163253498774717E+00
              0.906650661838719E+00
             -0.109996853729142E+01
             -0.674759483567001E+00
             -0.167881565428476E+00
             -0.120744390785207E+01
              0.269788325193750E+00
              0.652869391371427E+00
             -0.175815877496248E-01
             -0.280538910362498E+00
              0.282257338579736E+00
              0.184711455878359E+01
              0.451860072106989E+00
              0.247141403608168E+00
             -0.645417806732917E+00
             -0.785628726886094E+00
             -0.183604910395566E+00
              0.396143625985849E+00
             -0.803146993829058E-01
              0.376382945680145E+00
              0.493375730822686E+00
             -0.836725749402435E+00
              0.375020948357867E+00
              0.430370922094580E+00
              0.767235544949661E+00
             -0.146055930977778E+00
              0.854412366091610E-01
             -0.955934295452834E-01
             -0.605219550700093E+00
             -0.101943193821925E+01
              0.103099496798797E+01
             -0.143491887201829E+00
             -0.715231064647055E+00
              0.126367251602261E+00
             -0.432255213603452E+00
              0.116973319065649E+01
             -0.317652820932913E+00
             -0.529216827509308E+00
              0.527535009823774E+00
             -0.216866655303169E+00
              0.645852434141484E+00
              0.512311854866656E-01
              0.125718556944624E+01
              0.732052026132140E+00
              0.192401262559342E+00
             -0.549654892246505E+00
              0.400292125991900E+00
             -0.743289051232618E+00
             -0.505672924167762E-01
              0.894720504943082E+00
             -0.346056873289822E+00
             -0.591118279304147E+00
             -0.320489666179065E+00
              0.707780231127983E+00
              0.151326363117446E+00
             -0.111352186086396E+01
              0.477987006344519E+00
              0.681598620612913E-01
              0.162517220846316E+00
             -0.671354362136841E+00
              0.152346609707815E+00
              0.470017233126687E+00
              0.618006219930791E+00
              0.906868409464067E+00
              0.499477193122459E+00
              0.103578104677838E+00
             -0.777136683286236E+00
             -0.573312168407704E+00
             -0.868338649475043E+00
             -0.211121655833975E+00
              0.480209347455260E+00
             -0.269706036018191E-02
              0.714168576501855E+00
             -0.440953649253653E+00
              0.233292232982024E+00
             -0.343961648269716E+00
             -0.369516153754965E+00
              0.812692773956719E+00
              0.702950569242677E-01
              0.864295532525474E+00
              0.749218987760534E-01
              0.258835213202632E+00
             -0.219207683104321E+00
              0.820959451397129E+00
             -0.241259358369569E+00
              0.595408354051374E-02
             -0.107672418600941E+01
             -0.908434111394403E-01
              0.951718208439747E+00
              0.874472233403353E+00
              0.348297338838516E+00
             -0.217358035677363E+00
              0.838402239135481E-01
             -0.339344073777867E+00
             -0.296797909232532E+00
              0.123979331159069E+01
              0.121449322024294E+00
             -0.407193329425794E+00
             -0.144950426614237E+01
             -0.562042798176765E+00
             -0.524932986635268E+00
             -0.821338958563569E+00
             -0.827561520183997E+00
             -0.972371959013651E+00
             -0.618049212434172E+00
             -0.365395224437953E+00
             -0.663249133885135E+00
              0.605075463683269E+00
             -0.223416594897994E+00
             -0.112305674016723E+01
              0.571015955920683E+00
             -0.473191157996256E+00
             -0.108439135763864E+01
              0.139357188607458E+01
             -0.359393241448986E+00
              0.194094308600641E+00
              0.510025898339181E+00
              0.214742462188776E+00
              0.370352990130377E+00
              0.151942485129040E-01
              0.216202702883440E-01
             -0.183272128160425E+00
             -0.101924523120964E+01
              0.150492995863152E+00
             -0.163261041318893E+01
              0.101984988012536E+01
             -0.552434116020860E+00
             -0.269049802310042E+00
             -0.293607868812461E+00
              0.325897329145300E+00
             -0.213016580559627E+00
              0.380626621511540E+00
             -0.813513850401342E+00
              0.492003262965730E+00
              0.604944847244490E+00
              0.101888933123483E+00
              0.134509390375783E+00
              0.297090415840235E+00
              0.144454826625092E+00
              0.403053806735549E+00
             -0.482761803970906E-01
             -0.105863358215699E+01
              0.131327220278062E+00
             -0.494336242027003E+00
             -0.408200762317934E-01
              0.790635182831906E+00
             -0.109362526812092E+01
              0.371831763280479E-01
              0.533275128295712E-01
              0.135352449873694E+00
              0.411284057596453E+00
             -0.172798154427151E+00
              0.115994780254469E+01
              0.476392600418709E+00
             -0.188804882958528E+00
             -0.109866710239917E+00
              0.981211223286169E-01
              0.107854315095508E+01
             -0.662907082133652E+00
             -0.138571774609973E+01
              0.406173771719917E+00
             -0.109325399953850E+00
             -0.227556166243170E+00
              0.268149596310128E+00
              0.102791556007641E+01
              0.561673025581754E+00
             -0.231224954353228E+00
             -0.755873760744634E+00
             -0.190520374886554E+00
              0.372689467234348E+00
             -0.258393736608777E+00
             -0.105540573326786E+01
             -0.146670338292928E+00
             -0.136145492492947E+01
             -0.720421897736043E+00
              0.121941670736395E+01
             -0.728293608025498E+00
             -0.993518660030904E+00
             -0.733566995651026E+00
             -0.561398477351915E+00
              0.480143321754511E+00
              0.118012720980933E+01
             -0.154084695448389E+00
              0.364600806878368E+00
             -0.289426621645505E+00
             -0.937363512114570E+00
              0.723414186485949E+00
             -0.675449858782300E+00
              0.330827525263643E+00
              0.371411039100317E+00
             -0.231448401767560E+00
              0.491182716924515E+00
              0.519213415117747E+00
              0.170169722771294E+01
             -0.126367468452926E+00
             -0.810424891831702E+00
             -0.920788157183945E+00
             -0.274955852079936E+00
             -0.610469865099830E+00
              0.126399332342409E+01
             -0.630514545140178E+00
              0.140208496956045E+00
              0.183830100985984E-01
             -0.255417798400126E+00
             -0.120145128484680E+01
             -0.931478183918197E-01
              0.139138204224889E+01
              0.328451717456902E+00
              0.101629991108954E+00
             -0.832330665224413E+00
             -0.740300761523505E+00
             -0.270616022051293E+00
              0.617891044903741E+00
             -0.375544954964977E+00
              0.137832109645963E+01
             -0.677363212928007E+00
              0.267821520381965E+00
             -0.161692300342472E+00
             -0.843359340075341E+00
              0.100814008234114E+00
             -0.795620807966310E+00
             -0.101915159298331E+01
              0.162091322770758E+00
              0.149314034603316E-01
              0.674924749335081E+00
              0.382876362958265E+00
             -0.492718221590713E+00
              0.296253866746832E+00
             -0.124362878068050E+01
             -0.640489920941222E+00
              0.128858749918355E+01
              0.214649544013475E-01
             -0.546201930503152E-01
             -0.322621354862428E+00
             -0.740796908646146E-03
             -0.180311086058254E+00
              0.129353130761159E+01
              0.574750784793232E+00
             -0.100418580105352E+00
              0.207872713431039E-01
             -0.518855447202785E+00
             -0.152573115556160E+00
             -0.843084815799176E+00
              0.724213273966027E+00
              0.929763302645676E-01
              0.960212411716066E-01
              0.271737378773737E+00
             -0.210501881483673E+00
             -0.326649547516300E+00
              0.150099909915559E+00
             -0.155896578883660E+01
             -0.129685316641616E+00
             -0.141769760216781E+00
             -0.803335961690415E-01
              0.649866297841078E+00
              0.904138116925491E+00
              0.254522281835400E+00
             -0.128428571675755E+01
              0.880508495623084E+00
             -0.336131038927162E+00
             -0.508169416838146E+00
             -0.120500232924622E+01
             -0.355254061416839E+00
              0.890961412452653E+00
              0.480527847093393E+00
              0.240000140473719E+00
              0.494819089007579E+00
             -0.772961491978013E+00
             -0.689365696721103E+00
              0.882045265027684E+00
              0.577855941865204E+00
              0.638458706246398E+00
              0.147641862144336E+00
              0.153218971096981E+00
              0.728760344449185E+00
              0.136208655322467E+01
             -0.227711275290244E+00
              0.566913749556450E+00
             -0.443603272186263E+00
             -0.607231175901202E+00
             -0.485803802609589E+00
             -0.475359560490398E+00
             -0.195556515862116E+00
             -0.649270875396860E+00
             -0.253472687121185E+00
             -0.176812085391721E+01
              0.433873129105693E+00
              0.408795559154453E+00
             -0.469635374559347E-01
             -0.499040232468849E+00
             -0.238267588149781E+00
             -0.790789301250035E+00
              0.674440206322897E-01
              0.108886374106737E+01
             -0.257587509648235E+00
             -0.265834192639212E+00
              0.257189159978228E+00
             -0.713729971307382E+00
              0.118229557846056E+01
              0.210195242608832E+00
              0.660890510121712E-01
              0.714925811575311E+00
             -0.103835400822146E+00
              0.820963932751757E+00
              0.286587877409631E+00
             -0.941896227960815E-02
              0.192792804446367E+00
             -0.158037775026188E+00
              0.920892000869042E+00
              0.972190731887999E-01
              0.309077481268817E+00
             -0.124076369364372E+00
              0.143270771040117E+00
             -0.130520286784607E+01
             -0.477978075875469E+00
             -0.696393529675564E+00
              0.686202626022898E+00
             -0.504604272599026E+00
             -0.751574665312893E+00
              0.826832037167892E+00
             -0.192189046734404E+00
              0.567820364213395E+00
             -0.122241583875403E+01
              0.228142069945611E+00
              0.428919199543381E-01
              0.999866656234403E-01
             -0.202536996627647E+00
             -0.880392920923532E-01
              0.696295414498124E+00
              0.385211650709039E-01
             -0.743029558001467E+00
             -0.314483475945375E+00
              0.237820652432681E+00
             -0.159580453663683E+01
             -0.118764273831404E+01
              0.101743119239943E-01
              0.238185755548142E+00
             -0.727542017551568E+00
              0.270204185097427E-01
              0.141311186309533E+01
              0.384428550506030E+00
             -0.744577310058682E+00
              0.101839037631659E+00
             -0.147062527161922E+00
              0.190237309225312E+00
             -0.505092668357547E+00
              0.332777236974960E+00
              0.316542029719049E+00
             -0.121279260316324E+00
              0.156428680045313E+01
             -0.437459313795694E-01
             -0.420499747293730E+00
              0.452089880351236E+00
              0.596771555619359E+00
             -0.433537325789203E+00
             -0.523570281682850E-02
              0.136536341593266E+01
             -0.151334198105246E-01
              0.709851879419989E+00
              0.230756971767138E+00
             -0.849628353110703E-01
             -0.190941439804264E+00
              0.637391438700865E+00
             -0.827644466365328E+00
             -0.255203656511083E-01
             -0.287390593153934E+00
             -0.551285541143727E+00
              0.148669604963260E+00
              0.352561670252625E+00
             -0.440713090812554E-01
             -0.223823929644658E-01
             -0.580877902803907E+00
              0.193952146303852E+00
             -0.158668697095898E-01
             -0.292253783747195E+00
             -0.272807017345996E+00
              0.218216621473669E+00
              0.630798637316232E-02
             -0.540628464423833E+00
             -0.148992742151920E+01
              0.908272012764582E-01
              0.186748870088606E+00
             -0.684245199888547E+00
             -0.360597175448415E+00
              0.114078035020654E+01
              0.194944708248864E+00
              0.632389586048216E+00
              0.162277218118145E+00
              0.558362193197601E+00
              0.275636813359341E-01
             -0.549314923432684E+00
             -0.195738021747684E+00
              0.667574857980999E-01
              0.442881618366633E+00
              0.101115476460475E+01
              0.683593406368884E+00
              0.446003380084132E-01
              0.154074117424567E+00
              0.843007154422311E+00
              0.395633841211477E+00
             -0.949540089787309E+00
             -0.385281109490133E+00
              0.143914441492334E+00
              0.145209586806772E+00
              0.346810900844088E+00
             -0.702297873400434E+00
              0.482314353921671E-01
              0.581460691857823E+00
              0.672763836461437E+00
             -0.579564822246156E+00
              0.610667316181130E-01
             -0.359940371251906E-01
             -0.301318750639640E+00
             -0.327168938863455E+00
             -0.141707863965221E+00
             -0.202081340166532E+00
              0.164691050460218E+00
              0.583691082884662E+00
             -0.449088768738048E+00
              0.112594123012982E+01
              0.453152647721147E+00
              0.368152119149817E+00
              0.529933060258649E+00
              0.323482394293421E+00
              0.504847693758441E+00
              0.770337109007140E+00
             -0.659814042204459E+00
              0.872890828656098E+00
             -0.158635115093671E+01
              0.435632489836526E+00
             -0.144976353953108E+01
              0.110721679245353E+01
              0.109190131299436E+01
             -0.110075449511140E+00
             -0.641885475058940E+00
             -0.605381579103195E+00
             -0.731476369650403E+00
             -0.920659204398265E+00
              0.753828130890031E+00
              0.593868176070615E+00
              0.334521230344815E+00
              0.334063430007660E+00
              0.637598635514200E+00
             -0.574909089505103E+00
             -0.192360345884376E+00
              0.733112327388551E+00
             -0.170460409256036E+00
              0.688105596930793E+00
              0.108886591033769E+01
             -0.548238762507218E-01
             -0.105713334021311E+01
              0.955108836474770E-01
              0.199252387047734E-01
             -0.144827379936765E+00
              0.459967921943942E-01
             -0.892269651520608E+00
             -0.864874303412977E-01
              0.208330795786202E+00
              0.215429798140825E+00
              0.701005647779014E+00
             -0.590538708383805E+00
              0.684540428107764E+00
             -0.525084782115871E+00
              0.393242728788591E+00
              0.615061983835732E+00
 
 BEEF-vdW xc energy contributions
           1 :   -9.56248313212044     
           2 :    7.74764783589128     
           3 :   -5.16856065755021     
           4 :    2.78911175237656     
           5 :   -1.05065149631666     
           6 :   2.911267030299669E-002
           7 :   0.388172440387661     
           8 :  -0.422014299502584     
           9 :   0.312651553882439     
          10 :  -0.239288852869842     
          11 :   0.260938829310964     
          12 :  -0.333846736061547     
          13 :   0.379460957169149     
          14 :  -0.351547142226435     
          15 :   0.251976038108218     
          16 :  -0.119570102034254     
          17 :   2.481772394665072E-003
          18 :   6.610520085041038E-002
          19 :  -8.383344001885717E-002
          20 :   7.099518586641373E-002
          21 :  -5.257956647353978E-002
          22 :   4.048835744866075E-002
          23 :  -3.102796596181534E-002
          24 :   1.163129445233047E-002
          25 :   2.417635831054987E-002
          26 :  -6.792219260977284E-002
          27 :   9.924514855119781E-002
          28 :  -0.104039542502587     
          29 :   8.662338125061986E-002
          30 :  -6.494733541169317E-002
          31 :   -1.32483816539765     
          32 :  -0.807074897826888     

     Writing output data file ./pwscf.save/
 
     init_run     :     68.57s CPU     70.87s WALL (       1 calls)
     electrons    :    523.98s CPU    562.23s WALL (       1 calls)
     forces       :     29.70s CPU     31.74s WALL (       1 calls)

     Called by init_run:
     wfcinit      :      1.63s CPU      1.69s WALL (       1 calls)
     potinit      :     58.89s CPU     60.60s WALL (       1 calls)
     hinit0       :      6.59s CPU      6.70s WALL (       1 calls)

     Called by electrons:
     c_bands      :     74.72s CPU     75.46s WALL (      14 calls)
     sum_band     :     31.46s CPU     36.56s WALL (      14 calls)
     v_of_rho     :    355.46s CPU    380.17s WALL (      15 calls)
     newd         :     12.82s CPU     18.00s WALL (      15 calls)
     PAW_pot      :      1.27s CPU      1.28s WALL (      15 calls)
     mix_rho      :    102.05s CPU    106.43s WALL (      14 calls)
     vdW_kernel   :     33.46s CPU     33.46s WALL (       1 calls)

     Called by c_bands:
     init_us_2    :      1.09s CPU      1.12s WALL (      29 calls)
     regterg      :     72.74s CPU     73.47s WALL (      14 calls)

     Called by *egterg:
     rdiaghg      :      0.02s CPU      0.02s WALL (     111 calls)
     h_psi        :     67.05s CPU     67.08s WALL (     112 calls)
     s_psi        :      1.03s CPU      1.03s WALL (     112 calls)
     g_psi        :      0.23s CPU      0.23s WALL (      97 calls)

     Called by h_psi:
     h_psi:calbec :      1.14s CPU      1.14s WALL (     112 calls)
     vloc_psi     :     64.51s CPU     64.53s WALL (     112 calls)
     add_vuspsi   :      1.06s CPU      1.06s WALL (     112 calls)

     General routines
     calbec       :      1.37s CPU      1.38s WALL (     130 calls)
     fft          :    279.93s CPU    279.99s WALL (    2814 calls)
     ffts         :     46.59s CPU     46.59s WALL (     475 calls)
     fftw         :     61.36s CPU     61.36s WALL (     624 calls)
 
     Parallel routines
 
     PWSCF        :  21m35.86s CPU  23m11.58s WALL

 
   This run was terminated on:  17:10:30  20Dec2022            

=------------------------------------------------------------------------------=
   JOB DONE.
=------------------------------------------------------------------------------=
