
     Program PWSCF v.6.7MaX starts on  8Jan2023 at 15:46:23 

     This program is part of the open-source Quantum ESPRESSO suite
     for quantum simulation of materials; please cite
         "P. Giannozzi et al., J. Phys.:Condens. Matter 21 395502 (2009);
         "P. Giannozzi et al., J. Phys.:Condens. Matter 29 465901 (2017);
          URL http://www.quantum-espresso.org", 
     in publications or presentations arising from this work. More details at
     http://www.quantum-espresso.org/quote

     Parallel version (MPI), running on     1 processors

     MPI processes distributed on     1 nodes
     Reading input from chch2ch2-gas-ensemble.in
Warning: card &CELL ignored
Warning: card / ignored

     Current dimensions of program PWSCF are:
     Max number of different atomic species (ntypx) = 10
     Max number of k-points (npk) =  40000
     Max angular momentum in pseudopotentials (lmaxx) =  3
     file C.pbe-n-kjpaw_psl.1.0.0.UPF: wavefunction(s)  2S 2P renormalized
     file H.pbe-kjpaw_psl.1.0.0.UPF: wavefunction(s)  1S renormalized

     **************************************************************************
     Initializing libbeef V0.1.2 with the BEEF-vdW functional.
     Citation: Wellendorff et al., PRB 85, 235149 (2012).
     **************************************************************************


     IMPORTANT: XC functional enforced from input :
     Exchange-correlation= BEEF-VDW
                           (   1   4  43  14   2   0   0)
     Any further DFT definition will be discarded
     Please, verify this is what you really want


     gamma-point specific algorithms are used

     Subspace diagonalization in iterative solution of the eigenvalue problem:
     a serial algorithm will be used

 
     G-vector sticks info
     --------------------
     sticks:   dense  smooth     PW     G-vecs:    dense   smooth      PW
     Sum       35963   35963   8985              4840419  4840419  605141
 


     bravais-lattice index     =            0
     lattice parameter (alat)  =      42.0441  a.u.
     unit-cell volume          =   77093.3675 (a.u.)^3
     number of atoms/cell      =            8
     number of atomic types    =            2
     number of electrons       =        17.00
     number of Kohn-Sham states=           13
     kinetic-energy cutoff     =      60.0000  Ry
     charge density cutoff     =     240.0000  Ry
     scf convergence threshold =      1.0E-06
     mixing beta               =       0.7000
     number of iterations used =            8  local-TF  mixing
     Exchange-correlation= BEEF-VDW
                           (   1   4  43  14   2   0   0)

     celldm(1)=  42.044109  celldm(2)=   0.000000  celldm(3)=   0.000000
     celldm(4)=   0.000000  celldm(5)=   0.000000  celldm(6)=   0.000000

     crystal axes: (cart. coord. in units of alat)
               a(1) = (   1.000000   0.000000   0.000000 )  
               a(2) = (   0.000000   1.065138   0.000000 )  
               a(3) = (   0.000000   0.000000   0.973858 )  

     reciprocal axes: (cart. coord. in units 2 pi/alat)
               b(1) = (  1.000000  0.000000  0.000000 )  
               b(2) = (  0.000000  0.938846  0.000000 )  
               b(3) = (  0.000000  0.000000  1.026843 )  


     PseudoPot. # 1 for C  read from file:
     /users/bkreitz1/quantum-espresso/potentials/C.pbe-n-kjpaw_psl.1.0.0.UPF
     MD5 check sum: a169b0ebad56f5ec0d79c4633f80bf22
     Pseudo is Projector augmented-wave + core cor, Zval =  4.0
     Generated using 'atomic' code by A. Dal Corso  v.6.7MaX
     Shape of augmentation charge: PSQ
     Using radial grid of 1073 points,  4 beta functions with: 
                l(1) =   0
                l(2) =   0
                l(3) =   1
                l(4) =   1
     Q(r) pseudized with 0 coefficients 


     PseudoPot. # 2 for H  read from file:
     /users/bkreitz1/quantum-espresso/potentials/H.pbe-kjpaw_psl.1.0.0.UPF
     MD5 check sum: ae98473e6dc62675f0d0baffdab24f65
     Pseudo is Projector augmented-wave, Zval =  1.0
     Generated using 'atomic' code by A. Dal Corso  v.6.7MaX
     Shape of augmentation charge: PSQ
     Using radial grid of  929 points,  2 beta functions with: 
                l(1) =   0
                l(2) =   0
     Q(r) pseudized with 0 coefficients 


     atomic species   valence    mass     pseudopotential
        C              4.00    12.01100     C ( 1.00)
        H              1.00     1.00800     H ( 1.00)

     No symmetry found



   Cartesian axes

     site n.     atom                  positions (alat units)
         1           C   tau(   1) = (   0.4501399   0.4929943   0.4844502  )
         2           C   tau(   2) = (   0.5051927   0.5290055   0.4784224  )
         3           C   tau(   3) = (   0.5076157   0.5878442   0.4528581  )
         4           H   tau(   4) = (   0.4632316   0.4514592   0.5084139  )
         5           H   tau(   5) = (   0.4866572   0.5312339   0.5243955  )
         6           H   tau(   6) = (   0.5497712   0.5077375   0.4840894  )
         7           H   tau(   7) = (   0.5501628   0.6073169   0.4399353  )
         8           H   tau(   8) = (   0.4670414   0.6141155   0.4482875  )

     number of k points=     1  Gaussian smearing, width (Ry)=  0.0050
                       cart. coord. in units 2pi/alat
        k(    1) = (   0.0000000   0.0000000   0.0000000), wk =   2.0000000

     Dense  grid:  2420210 G-vectors     FFT dimensions: ( 216, 225, 216)

     Estimated max dynamical RAM per process >       4.01 GB

     Initial potential from superposition of free atoms

     starting charge   16.99983, renormalised to   17.00000

     negative rho (up, down):  9.003E-03 0.000E+00


     %%%%%%%%%%%%%%%%%%%%%%%%%%%%%%%%%%%%%%%%%%%%%%%%%%%%%%%%%%%%%%%%%%%%%%%%
     %                                                                      %
     % You are using vdW-DF, which was implemented by the Thonhauser group. %
     % Please cite the following two papers that made this development      %
     % possible and the two reviews that describe the various versions:     %
     %                                                                      %
     %   T. Thonhauser et al., PRL 115, 136402 (2015).                      %
     %   T. Thonhauser et al., PRB 76, 125112 (2007).                       %
     %   K. Berland et al., Rep. Prog. Phys. 78, 066501 (2015).             %
     %   D.C. Langreth et al., J. Phys.: Condens. Matter 21, 084203 (2009). %
     %                                                                      %
     %                                                                      %
     % If you are calculating the stress with vdW-DF, please also cite:     %
     %                                                                      %
     %   R. Sabatini et al., J. Phys.: Condens. Matter 24, 424209 (2012).   %
     %                                                                      %
     %%%%%%%%%%%%%%%%%%%%%%%%%%%%%%%%%%%%%%%%%%%%%%%%%%%%%%%%%%%%%%%%%%%%%%%%


     Starting wfcs are   17 randomized atomic wfcs
     Checking if some PAW data can be deallocated... 

     total cpu time spent up to now is       71.7 secs

     Self-consistent Calculation

     iteration #  1     ecut=    60.00 Ry     beta= 0.70
     Davidson diagonalization with overlap
     ethr =  1.00E-02,  avg # of iterations =  5.0

     negative rho (up, down):  7.472E-03 0.000E+00

     total cpu time spent up to now is      112.6 secs

     total energy              =     -62.72338339 Ry
     estimated scf accuracy    <       0.81886652 Ry

     iteration #  2     ecut=    60.00 Ry     beta= 0.70
     Davidson diagonalization with overlap
     ethr =  4.82E-03,  avg # of iterations =  1.0

     negative rho (up, down):  5.483E-03 0.000E+00

     total cpu time spent up to now is      152.6 secs

     total energy              =     -62.63861641 Ry
     estimated scf accuracy    <       0.22233664 Ry

     iteration #  3     ecut=    60.00 Ry     beta= 0.70
     Davidson diagonalization with overlap
     ethr =  1.31E-03,  avg # of iterations =  4.0

     negative rho (up, down):  7.597E-03 0.000E+00

     total cpu time spent up to now is      194.2 secs

     total energy              =     -62.66545793 Ry
     estimated scf accuracy    <       0.03001018 Ry

     iteration #  4     ecut=    60.00 Ry     beta= 0.70
     Davidson diagonalization with overlap
     ethr =  1.77E-04,  avg # of iterations =  7.0

     negative rho (up, down):  2.272E-02 0.000E+00

     total cpu time spent up to now is      238.0 secs

     total energy              =     -62.66193006 Ry
     estimated scf accuracy    <       0.01682679 Ry

     iteration #  5     ecut=    60.00 Ry     beta= 0.70
     Davidson diagonalization with overlap
     ethr =  9.90E-05,  avg # of iterations =  5.0

     negative rho (up, down):  6.572E-02 0.000E+00

     total cpu time spent up to now is      280.0 secs

     total energy              =     -62.66121619 Ry
     estimated scf accuracy    <       0.00854827 Ry

     iteration #  6     ecut=    60.00 Ry     beta= 0.70
     Davidson diagonalization with overlap
     ethr =  5.03E-05,  avg # of iterations =  4.0

     negative rho (up, down):  1.224E-01 0.000E+00

     total cpu time spent up to now is      322.6 secs

     total energy              =     -62.66339740 Ry
     estimated scf accuracy    <       0.00400620 Ry

     iteration #  7     ecut=    60.00 Ry     beta= 0.70
     Davidson diagonalization with overlap
     ethr =  2.36E-05,  avg # of iterations =  5.0

     negative rho (up, down):  1.084E-01 0.000E+00

     total cpu time spent up to now is      364.9 secs

     total energy              =     -62.66269483 Ry
     estimated scf accuracy    <       0.00277711 Ry

     iteration #  8     ecut=    60.00 Ry     beta= 0.70
     Davidson diagonalization with overlap
     ethr =  1.63E-05,  avg # of iterations =  2.0

     negative rho (up, down):  9.944E-02 0.000E+00

     total cpu time spent up to now is      405.0 secs

     total energy              =     -62.66205012 Ry
     estimated scf accuracy    <       0.00126146 Ry

     iteration #  9     ecut=    60.00 Ry     beta= 0.70
     Davidson diagonalization with overlap
     ethr =  7.42E-06,  avg # of iterations =  8.0

     negative rho (up, down):  8.319E-02 0.000E+00

     total cpu time spent up to now is      448.3 secs

     total energy              =     -62.66162811 Ry
     estimated scf accuracy    <       0.00085905 Ry

     iteration # 10     ecut=    60.00 Ry     beta= 0.70
     Davidson diagonalization with overlap
     ethr =  5.05E-06,  avg # of iterations =  8.0

     negative rho (up, down):  6.152E-02 0.000E+00

     total cpu time spent up to now is      490.4 secs

     total energy              =     -62.66112250 Ry
     estimated scf accuracy    <       0.00035757 Ry

     iteration # 11     ecut=    60.00 Ry     beta= 0.70
     Davidson diagonalization with overlap
     ethr =  2.10E-06,  avg # of iterations =  8.0

     negative rho (up, down):  3.832E-02 0.000E+00

     total cpu time spent up to now is      533.8 secs

     total energy              =     -62.66102520 Ry
     estimated scf accuracy    <       0.00015927 Ry

     iteration # 12     ecut=    60.00 Ry     beta= 0.70
     Davidson diagonalization with overlap
     ethr =  9.37E-07,  avg # of iterations =  7.0

     negative rho (up, down):  3.248E-02 0.000E+00

     total cpu time spent up to now is      575.9 secs

     total energy              =     -62.66107316 Ry
     estimated scf accuracy    <       0.00004077 Ry

     iteration # 13     ecut=    60.00 Ry     beta= 0.70
     Davidson diagonalization with overlap
     ethr =  2.40E-07,  avg # of iterations =  1.0

     negative rho (up, down):  2.325E-02 0.000E+00

     total cpu time spent up to now is      613.7 secs

     total energy              =     -62.66109287 Ry
     estimated scf accuracy    <       0.00002352 Ry

     iteration # 14     ecut=    60.00 Ry     beta= 0.70
     Davidson diagonalization with overlap
     ethr =  1.38E-07,  avg # of iterations =  8.0

     negative rho (up, down):  1.826E-02 0.000E+00

     total cpu time spent up to now is      654.2 secs

     total energy              =     -62.66110244 Ry
     estimated scf accuracy    <       0.00000841 Ry

     iteration # 15     ecut=    60.00 Ry     beta= 0.70
     Davidson diagonalization with overlap
     ethr =  4.95E-08,  avg # of iterations =  2.0

     negative rho (up, down):  1.691E-02 0.000E+00

     total cpu time spent up to now is      693.2 secs

     total energy              =     -62.66110727 Ry
     estimated scf accuracy    <       0.00000370 Ry

     iteration # 16     ecut=    60.00 Ry     beta= 0.70
     Davidson diagonalization with overlap
     ethr =  2.17E-08,  avg # of iterations =  2.0

     negative rho (up, down):  1.537E-02 0.000E+00

     total cpu time spent up to now is      722.7 secs

     End of self-consistent calculation

          k = 0.0000 0.0000 0.0000 (302571 PWs)   bands (ev):

   -21.3475 -17.5345 -13.9019 -12.4681 -11.1766 -10.2237  -9.6349  -5.4127
    -4.9516  -2.3622  -1.1059  -0.5167  -0.4366

     the Fermi energy is    -4.9516 ev

!    total energy              =     -62.66110727 Ry

     total all-electron energy =      -235.953377 Ry
     estimated scf accuracy    <       0.00000095 Ry
     smearing contrib. (-TS)   =      -0.00282095 Ry
     internal energy E=F+TS    =     -62.65828632 Ry

     The total energy is F=E-TS. E is the sum of the following terms:
     one-electron contribution =    -160.14244682 Ry
     hartree contribution      =      81.99530933 Ry
     xc contribution           =     -17.92691663 Ry
     ewald contribution        =      53.07344393 Ry
     one-center paw contrib.   =     -19.65767613 Ry

     convergence has been achieved in  16 iterations

     negative rho (up, down):  1.537E-02 0.000E+00

     Forces acting on atoms (cartesian axes, Ry/au):

     atom    1 type  1   force =     0.00012056    0.00011206    0.00067915
     atom    2 type  1   force =     0.04282646   -0.00468549   -0.07230862
     atom    3 type  1   force =     0.00043247   -0.00071093   -0.00080465
     atom    4 type  2   force =    -0.00003271   -0.00028562    0.00058799
     atom    5 type  2   force =    -0.03504081    0.00251835    0.07468916
     atom    6 type  2   force =    -0.00697108    0.00170176   -0.00346624
     atom    7 type  2   force =    -0.00059552    0.00011449    0.00063905
     atom    8 type  2   force =    -0.00073937    0.00123539   -0.00001584

     Total force =     0.002260     Total SCF correction =     0.000263
     SCF correction compared to forces is large: reduce conv_thr to get better values

     negative rho (up, down):  1.537E-02 0.000E+00

     negative rho (up, down):  1.537E-02 0.000E+00

     negative rho (up, down):  1.537E-02 0.000E+00

     negative rho (up, down):  1.537E-02 0.000E+00

     negative rho (up, down):  1.537E-02 0.000E+00

     negative rho (up, down):  1.537E-02 0.000E+00

     negative rho (up, down):  1.537E-02 0.000E+00

     negative rho (up, down):  1.537E-02 0.000E+00

     negative rho (up, down):  1.537E-02 0.000E+00

     negative rho (up, down):  1.537E-02 0.000E+00

     negative rho (up, down):  1.537E-02 0.000E+00

     negative rho (up, down):  1.537E-02 0.000E+00

     negative rho (up, down):  1.537E-02 0.000E+00

     negative rho (up, down):  1.537E-02 0.000E+00

     negative rho (up, down):  1.537E-02 0.000E+00

     negative rho (up, down):  1.537E-02 0.000E+00

     negative rho (up, down):  1.537E-02 0.000E+00

     negative rho (up, down):  1.537E-02 0.000E+00

     negative rho (up, down):  1.537E-02 0.000E+00

     negative rho (up, down):  1.537E-02 0.000E+00

     negative rho (up, down):  1.537E-02 0.000E+00

     negative rho (up, down):  1.537E-02 0.000E+00

     negative rho (up, down):  1.537E-02 0.000E+00

     negative rho (up, down):  1.537E-02 0.000E+00

     negative rho (up, down):  1.537E-02 0.000E+00

     negative rho (up, down):  1.537E-02 0.000E+00

     negative rho (up, down):  1.537E-02 0.000E+00

     negative rho (up, down):  1.537E-02 0.000E+00

     negative rho (up, down):  1.537E-02 0.000E+00

     negative rho (up, down):  1.537E-02 0.000E+00

     negative rho (up, down):  1.537E-02 0.000E+00

     negative rho (up, down):  1.537E-02 0.000E+00

     negative rho (up, down):  1.537E-02 0.000E+00

     negative rho (up, down):  1.537E-02 0.000E+00
 BEEFens 2000 ensemble energies
             -0.137010103467429E+01
             -0.436526607974863E-01
             -0.263785601791812E+00
              0.928081306825101E+00
             -0.438749384278718E+00
             -0.310775291101169E+00
             -0.102395212271474E+01
             -0.205950897290156E+01
             -0.671157569218749E+00
             -0.730899991355825E+00
             -0.759445933960460E+00
              0.144707383626016E+00
              0.767475536758977E-01
             -0.136848005845844E+00
              0.829055757487409E-01
              0.986839378081616E+00
             -0.397765974937893E+00
             -0.152348111763417E+00
              0.519384610186080E+00
             -0.230859594854957E+01
              0.118205165714678E+01
             -0.374856617993155E+00
             -0.136508682448924E+00
             -0.175128493324690E+00
              0.956907573587369E-01
             -0.815896470439665E-01
              0.183617996203139E+01
             -0.525936501661004E+00
             -0.151304643280078E+00
             -0.119107159583050E+01
              0.137552039398240E+01
             -0.320693744910434E-01
             -0.871883511149003E+00
              0.342813996220955E+00
             -0.596882653086492E-01
              0.650887961275568E+00
              0.590828492993651E-01
             -0.401879478668130E-01
              0.846334804842597E+00
             -0.205345594135664E+01
              0.115496515921693E+01
              0.253693784763970E+00
             -0.299162000253753E+00
             -0.595220949222573E+00
              0.257135281666465E+00
             -0.399315776311305E+00
              0.108557548031559E+01
              0.722027833689435E+00
             -0.353503053295203E+00
             -0.673108013916845E+00
             -0.652773012862433E+00
             -0.794239740746520E+00
              0.516239072016744E+00
             -0.109544282838189E+01
              0.356152754891353E+00
              0.127953313903709E+01
              0.161475148689594E+01
              0.660370546127834E+00
              0.335447162486219E+00
              0.708532194576311E+00
              0.191958238295609E+01
              0.308750077290462E+00
             -0.114735701957068E+01
             -0.176491428415487E+00
             -0.636362715703533E+00
              0.129500168066076E+01
             -0.147159866934813E+01
             -0.122530101824512E+01
             -0.749396231650029E+00
             -0.461624552011203E+00
             -0.768699693035187E+00
              0.581011108606902E+00
              0.288163634189083E+00
              0.345875867460568E+00
             -0.812563200891875E+00
             -0.745361364145237E+00
             -0.125131138409719E+01
              0.624770739493410E+00
             -0.736095303061988E+00
              0.700427284106594E+00
             -0.190411916279001E+00
             -0.575281146088221E+00
             -0.100888023561694E+01
             -0.301070250035600E+00
             -0.363494863208969E+00
             -0.289791314419562E+00
              0.812389895727856E+00
              0.167823414561470E+01
             -0.969642484140590E+00
             -0.165253450663501E+01
             -0.375207535870601E+00
              0.225594671719764E+01
             -0.117779940473992E+01
              0.633301279899185E+00
             -0.252881126534685E+00
             -0.120756803933154E+01
              0.572176268305602E+00
              0.592299344105576E+00
             -0.312417595365984E+00
              0.569451270105224E+00
             -0.499787249849273E+00
             -0.132910024634028E+01
              0.215291495864010E+01
              0.941540935852931E+00
              0.400949721870060E+00
              0.257327386390036E+00
              0.511316996651336E+00
              0.168693010409242E+01
             -0.558220844550666E+00
              0.499218308708103E-01
             -0.286761733410701E+01
              0.350389537049139E+00
             -0.136714148995384E+01
              0.260083214307420E+00
              0.455460862279426E+00
             -0.793279831667000E+00
             -0.102740953340008E+01
              0.312378337644805E-01
             -0.656325446666454E+00
              0.960611398413951E+00
             -0.932943403352466E+00
             -0.206248741827247E+00
             -0.804819659940886E+00
             -0.670960894338775E-01
              0.134004834978125E+00
              0.524353521952517E+00
             -0.103235820820764E-01
             -0.118292411443660E+00
              0.143113018914698E+01
              0.192932175905761E+01
              0.104606261059128E+01
              0.129433524959562E+01
             -0.276545761691908E+00
              0.149551422920937E+00
              0.106437969090885E+01
              0.166355803889005E+00
             -0.160279899358279E+01
             -0.959044788148158E+00
             -0.102095458191447E+01
             -0.615804022901987E+00
              0.527223717262507E+00
             -0.255276552241767E+01
             -0.244085156741140E+00
              0.987284872267583E+00
             -0.845344913482656E+00
             -0.581079419302533E+00
              0.125048066672595E+01
              0.102913570819385E+01
             -0.581340448388942E+00
              0.759728065936710E+00
             -0.533937045842348E+00
              0.795694439636649E+00
              0.136012993631554E+00
              0.183824877959489E+00
             -0.169383642417094E+01
             -0.988968652821985E+00
             -0.188233385906484E+00
             -0.960857864645997E-01
             -0.907630142893309E+00
              0.234224221394947E+01
             -0.204358553180015E+00
             -0.542430248590018E+00
              0.803288363284025E+00
             -0.910681805861807E+00
             -0.812411488033479E+00
              0.689233969701352E+00
              0.265598120253356E+00
              0.226532184063180E+00
              0.368908042686654E+00
             -0.220654647736208E+00
              0.168356545997265E+00
              0.120415313180904E+01
             -0.538890166724029E+00
              0.470105135623145E+00
              0.184952050621825E+01
              0.660876753150863E+00
             -0.713387669505448E-01
             -0.449156144968717E+00
              0.325318690078288E+01
             -0.555242077672383E+00
              0.838820070784910E+00
              0.679636211176117E+00
              0.534723829013461E+00
              0.193636775387949E+01
              0.944407274168046E+00
             -0.107041531252385E+00
              0.544854523707540E+00
              0.110759233336630E+01
              0.800468345983196E+00
             -0.130205398493110E+01
              0.197782335671454E+01
             -0.180295097141153E+01
             -0.187752649391920E+00
              0.115600129119097E+01
              0.411445276066489E+00
              0.114027833414811E+00
              0.538314439604707E+00
              0.300110643207064E+00
              0.668664170740151E+00
             -0.129592685928550E+01
              0.612514102835018E-01
             -0.477856721462002E+00
             -0.971698409446153E-01
             -0.714811462643148E-01
             -0.299749375394102E+00
             -0.141369032205276E+00
              0.173433870829912E+01
             -0.897877877961246E-01
             -0.595058283388918E+00
             -0.158842211664785E-01
              0.307389842531967E+00
             -0.135739123199591E+01
             -0.121991575874531E+01
             -0.693265590216028E+00
             -0.132075954882778E+01
             -0.403413594997503E+00
             -0.835765077225892E+00
              0.369027187756473E+00
              0.642669093610913E-01
             -0.280517899565307E+00
             -0.163690005830264E+00
              0.937745041196125E-01
             -0.230043228843581E+00
              0.136264273266961E+01
             -0.186595572985859E+01
             -0.275553839275907E+00
             -0.265792918388057E+00
              0.310227387461031E+00
              0.488215940213011E+00
             -0.107953740887676E+01
             -0.226345636432368E+00
              0.941477531752905E+00
             -0.390236390236327E+00
              0.285964351086244E+00
              0.682329977541265E+00
             -0.115507445908474E-01
              0.239852391511046E+01
             -0.174222518606841E+00
             -0.712151733167664E+00
             -0.186570126879504E-01
             -0.610156192631623E+00
              0.114383657244274E+01
             -0.106285354523737E+01
              0.309322398034153E+00
              0.983090890523102E+00
             -0.263478694947160E+00
              0.246141186364407E+01
              0.266739950603013E+01
             -0.148813395927089E+01
              0.120485929601562E+01
              0.526935782852603E+00
             -0.119113139793382E+01
              0.347452197141870E+00
              0.943914780726712E+00
              0.101515706022357E+01
              0.926967532386680E-01
              0.410639931900402E+00
              0.159599134539145E+01
             -0.484444347281327E+00
              0.179977170530082E+00
              0.137241932680216E+01
             -0.742891709976678E+00
             -0.553937248964337E+00
              0.127687247075673E+01
              0.654687790318476E+00
              0.158973389222892E+01
              0.751749953482502E+00
              0.319298879276552E+00
              0.511468540441205E+00
              0.908261478361645E+00
             -0.115018895471186E+01
              0.186711414708429E+00
              0.639695059008848E+00
              0.238170390362056E+00
              0.523382664336598E+00
             -0.132324351416374E+01
              0.652613699854099E+00
             -0.894703431688450E+00
             -0.657124898268411E+00
              0.437439332296282E+00
             -0.151267453242454E+00
              0.128634968630388E+01
             -0.234147481744210E+00
              0.621268740891170E+00
              0.612322708236002E+00
              0.160001785495591E+01
              0.108258421460089E+01
              0.108929852307647E+01
              0.294300950463722E-02
             -0.264035328565638E+00
             -0.618077053663697E+00
              0.174731528250295E+01
              0.173414760273755E+01
              0.838403200654793E+00
             -0.621329627202714E+00
              0.102630134732381E+01
              0.497109493558305E-01
              0.321179950345222E+00
              0.148184499273805E+01
             -0.637903187171909E-01
             -0.214386297697006E+00
             -0.401982105414385E+00
             -0.133966918116084E+01
              0.202543931903131E+01
              0.111911951488331E+01
             -0.139104015659087E+01
             -0.482016499902636E+00
              0.508161754669826E+00
             -0.210689670041470E+00
              0.139264640037432E+01
              0.316486743139823E+00
              0.170360468446152E+01
              0.669705835457248E+00
             -0.450451874557322E+00
              0.344888537760873E+00
             -0.150963376940163E+00
             -0.491646929138438E+00
              0.349848092553840E+00
              0.306851013178768E+00
              0.191418268714971E+01
              0.158860412302828E+01
              0.121602313840073E+01
              0.137507785563725E+01
              0.149769360265270E+00
             -0.531301011626848E+00
              0.276060126463731E+00
             -0.682908649621348E+00
             -0.121974459349708E+01
             -0.117025382427567E+01
             -0.687660104633934E+00
             -0.226090610510489E+01
             -0.811313221693308E+00
             -0.183261956489278E+01
              0.447693850055409E+00
             -0.938440391458376E+00
              0.110512399059849E+01
             -0.210048901155542E+01
             -0.619955190565417E+00
              0.751907195415409E+00
              0.453351027261534E+00
             -0.192907776173595E+01
              0.107299277306346E+01
             -0.611459035967638E+00
              0.116524899974450E+01
             -0.549667049342725E+00
             -0.165125155059413E+01
              0.373145593843132E+00
             -0.139104668544845E+01
             -0.217111912139165E-01
             -0.474101773668703E-01
              0.852128228655112E+00
              0.264208591716856E+01
             -0.885480554054774E+00
             -0.785702874480519E+00
             -0.155358134041892E+00
             -0.145663130406655E+00
             -0.167640214190937E+01
             -0.117628228094702E+01
              0.102921124389543E+01
             -0.348112540320669E+00
              0.500896931029637E+00
             -0.102694050347021E+01
             -0.348797699867513E+00
             -0.867344581890849E+00
              0.100084649170232E+01
              0.230467240332210E+00
             -0.518955858211889E+00
             -0.403857524349381E+00
              0.296380357322397E+00
             -0.155285418713215E+00
              0.827907462740093E+00
             -0.551600651276711E+00
              0.279352606600508E+00
              0.721443478161084E+00
              0.236654791827037E+00
             -0.532899953590301E+00
              0.323938810330950E+01
              0.128272364882166E+01
              0.229045631518843E+00
              0.110535660717067E+00
             -0.127528082657160E+01
              0.704960529348440E+00
             -0.165550039079439E+01
             -0.740051551625831E+00
             -0.127076718874207E+01
             -0.382822788327540E+00
              0.125792221777873E+01
             -0.122242193056360E+01
              0.592759935412468E+00
             -0.102077823602587E+00
              0.169695112473729E-01
             -0.633377786691899E+00
             -0.856860807804784E+00
             -0.164981055456652E+00
             -0.642987149698036E+00
             -0.457020991133946E+00
             -0.838181489335209E+00
             -0.956691947503954E-01
             -0.662752121370446E+00
             -0.101144168003396E+01
              0.432222956054382E+00
             -0.223770203931386E+00
              0.518596185220581E+00
              0.169086408619551E+00
             -0.159710635997954E+01
             -0.104839326795146E+01
             -0.109590024939125E+01
              0.648350102288624E+00
             -0.162896111157334E+00
             -0.127635717495454E+01
              0.120051713158179E+01
             -0.897536154991365E+00
              0.126300941315431E+01
             -0.667138694608191E+00
             -0.102382821217392E+01
              0.493247220828998E+00
             -0.153510547899716E+01
             -0.645378397362609E+00
              0.120648175728395E+01
              0.435728433634996E+00
             -0.950839630232494E+00
              0.118843548186455E+01
             -0.344017449889153E+00
             -0.792729594730101E+00
             -0.623658688100085E+00
             -0.110369926206086E+01
              0.559204708628902E+00
             -0.182325279739978E+01
             -0.157992320227385E+01
             -0.168263728946073E+00
             -0.606705337748141E+00
             -0.128829995597479E+01
              0.161382267589421E+01
              0.291205635465983E+01
             -0.413302726520381E+00
             -0.872441684387537E-01
             -0.125388414630968E+01
              0.139336701471109E+01
              0.470477843435972E+00
             -0.460292327445329E+00
             -0.750371146294544E+00
              0.297150426870709E+00
             -0.124427430203763E+01
             -0.226306617025157E+00
             -0.179147617885141E+01
              0.719947987005501E+00
              0.218004749571457E+00
             -0.132532718765312E+00
             -0.272533093992982E+00
             -0.918580276353751E+00
             -0.296291482734148E+00
              0.290574306983140E+01
             -0.317941235623488E+00
             -0.104427564885401E+01
             -0.146526916257725E+01
              0.306767956416127E+00
             -0.824324167400136E+00
              0.227060798660814E+00
              0.714213093439588E+00
              0.102493832993289E+00
              0.777271638761529E+00
              0.403376326762464E+00
              0.123092309656742E+01
              0.495636097784223E+00
             -0.782414713259019E+00
              0.119601559812667E+01
              0.715020280202512E+00
              0.263770975499230E+00
              0.761248562019857E+00
             -0.695167280584792E+00
              0.149388274839882E+01
              0.574736943231047E+00
             -0.743221255632993E+00
             -0.117714108907391E+00
             -0.347422915932855E+00
              0.300826646764795E+00
             -0.518643978302570E+00
             -0.285122864518880E+00
             -0.279141527587786E+00
              0.170166560364089E+01
              0.123839458611901E+01
             -0.132176608027477E+01
             -0.188090589009327E+00
             -0.103126514005231E+01
             -0.257772228859610E+00
             -0.443647162438107E+00
              0.249223259408005E+00
             -0.637720499766634E-01
             -0.613110025760188E+00
              0.381600718709176E+00
             -0.201486658891769E+00
             -0.132767821426167E+00
              0.183543929954667E+01
              0.300888506427133E+00
             -0.177597654003007E+01
             -0.787781495157869E+00
              0.203971236626099E+01
              0.495454709610421E+00
             -0.174118971838881E+00
              0.232356996018741E+01
             -0.327462694656255E+00
             -0.150023416542338E+00
             -0.270461399500983E+00
              0.343708683284564E+00
              0.725818565087545E+00
              0.486219550357117E-01
              0.597733247975476E+00
             -0.214744030302817E+00
             -0.876231200405279E+00
             -0.831499578127305E+00
             -0.101600010914817E+01
              0.842354727711713E+00
              0.308822692079865E+00
              0.799070463397423E+00
              0.341918673289705E+00
              0.191086288599799E+01
              0.437070072710593E+00
             -0.161493334820385E+01
             -0.692355835971371E+00
              0.360076291555134E-01
             -0.585215026906239E+00
              0.135138039510607E+01
             -0.343232645884388E+00
              0.354700111874952E+00
              0.117982165586880E+01
             -0.172281387108691E+01
              0.310455524828779E+01
              0.413657296199955E+00
              0.505263863580593E+00
              0.811443083483545E+00
              0.619594945132942E-01
             -0.369427722530409E-01
              0.667066852556687E+00
             -0.747914291481112E+00
              0.185025087671783E+01
              0.161586709965007E+01
             -0.821955809189278E+00
              0.364696887259342E+00
              0.153271248731890E+01
             -0.447339933508755E+00
              0.449717121305721E+00
              0.664815790500724E+00
              0.862190108150082E+00
             -0.156105504901932E+01
             -0.105849979032815E+00
             -0.537077048200638E+00
             -0.134729709522819E+00
             -0.157099734600625E+00
              0.182109956008320E+00
             -0.247773475964213E+00
             -0.656167583730518E+00
              0.377698938987146E+00
              0.116629221993683E+00
              0.112309148307829E+01
             -0.995579916947161E+00
              0.999239985673203E+00
              0.107889911922455E+01
             -0.159994834348217E+00
              0.155093794333944E+01
             -0.141931456573300E+01
             -0.217932893727019E+01
             -0.181771446486408E+00
             -0.146779974879477E+00
             -0.136000671163270E-01
              0.165245514934028E+01
             -0.865227974851712E-02
              0.905500200357860E+00
              0.128987365053255E+01
              0.818158776087394E+00
             -0.131546079464679E+00
              0.123002632056283E+01
             -0.355534454044124E+00
             -0.841998659443217E+00
             -0.727284053463512E+00
              0.232696853286655E+00
              0.720483261514241E+00
             -0.468294776197276E-01
              0.690894703009464E+00
              0.152323403007637E-01
              0.115286602044322E+01
              0.327897361889506E+00
              0.164906712408425E+00
              0.411799011203104E-01
              0.610480069701231E+00
              0.865255227087240E+00
              0.296542143634153E+00
             -0.749210186566267E-01
             -0.115123594650422E+01
              0.640569212905378E+00
              0.443310236370752E+00
              0.681696580008680E+00
              0.633913099214626E+00
              0.769797352132125E+00
             -0.196376868630586E+00
              0.745534865183859E+00
             -0.627885118628278E+00
             -0.414795852434011E-01
             -0.110313369788231E+01
             -0.733585057945046E+00
              0.916703542162285E+00
             -0.185514351466506E+01
              0.495165631754448E+00
              0.289821737096046E+00
              0.183438380679568E+01
             -0.233797841258644E+00
              0.705711461246836E+00
             -0.236984119049353E+00
             -0.104783658582829E+01
             -0.136361041593746E+01
             -0.343684495240401E+00
             -0.193313628098719E+01
              0.150329178645055E+00
             -0.440130185458648E+00
              0.699729104050037E+00
              0.526941463800052E+00
             -0.624455457285581E+00
             -0.656826762925595E+00
              0.905720845925415E+00
             -0.121720589712337E+01
             -0.298452306379961E+00
             -0.338816469958523E+00
              0.583843494222263E+00
              0.138560163957377E+00
              0.760013195083271E-01
             -0.305550277580857E+00
              0.112783752333049E+01
             -0.130027812543512E+01
              0.143035511512894E+00
              0.128137061366422E+01
             -0.784920892613176E+00
              0.863459892880263E-01
              0.570507293464892E-01
             -0.136259174469620E+01
             -0.775345210182556E+00
             -0.209171849558708E-01
              0.668860837870608E+00
              0.741289607242802E+00
              0.101080376683827E+00
             -0.260764892969160E+00
              0.350533104513724E+00
             -0.834547020748344E+00
             -0.119679202094105E+00
             -0.111719323870541E+01
             -0.556212506425731E+00
              0.106941030032776E+01
             -0.644502229601593E+00
              0.149981869606885E+01
             -0.507278077010793E+00
              0.691579711149743E+00
              0.540429877932550E+00
             -0.126124138164764E+01
             -0.523847272624359E+00
              0.208845290944894E+00
             -0.899069770284532E+00
             -0.877002015994336E+00
             -0.189052151181410E+01
             -0.116788094126729E+01
             -0.104277210688972E+01
             -0.963183348084285E+00
              0.439443956720575E-02
              0.540461927815475E+00
              0.268597330436122E+00
              0.605671780560015E+00
             -0.124068408495372E+01
              0.285023187355096E+00
              0.629206898797012E+00
             -0.145309130301939E+01
             -0.118902971430842E+01
             -0.827252248178510E+00
             -0.725834033987623E+00
              0.293362177043671E+00
             -0.766052033232043E-01
             -0.875350484834234E+00
              0.572021851217954E+00
             -0.496951993349135E+00
              0.110314988309204E+01
             -0.186201732956420E+01
              0.136909778057780E+01
             -0.268377357559831E+00
             -0.943119369336270E+00
             -0.580256327949678E+00
             -0.268142675758476E-01
              0.104999493823972E+01
             -0.146613479998187E+01
             -0.265350528944459E+00
             -0.347279690419446E+00
              0.851445383927971E+00
              0.168994463096840E+01
             -0.213262249703437E+01
              0.192957292583079E+01
              0.793242982908761E+00
             -0.161340482240741E+01
             -0.652067918784350E+00
              0.167773812191469E+01
              0.118911852400732E+01
             -0.457756634071211E+00
             -0.155550633213079E+00
              0.406276348151438E+00
              0.166421941844896E+01
             -0.127447139468854E+01
              0.260380469914740E+00
             -0.166272074175008E+00
              0.540453855363268E+00
             -0.148225927408364E+01
             -0.427298183250910E-01
             -0.549603555928989E+00
              0.102983418999517E+01
              0.799345942615883E+00
             -0.189279490508873E+01
             -0.994935253807926E+00
             -0.428437205263398E+00
             -0.948660868132873E+00
             -0.260444495304010E+00
             -0.358842775645887E+00
              0.968001904075447E+00
              0.911849771050442E+00
             -0.190361248237663E-01
             -0.935618846204033E+00
             -0.183098729016621E+01
              0.108623109465177E+01
             -0.959164554723267E+00
             -0.811972953161768E+00
              0.159273854864014E+00
             -0.800062144914742E+00
             -0.852352804837006E+00
             -0.675009341415651E+00
             -0.111404686291050E+01
             -0.496327341522159E+00
             -0.105031285128866E+01
              0.115351665671822E+01
              0.122939589084207E+01
             -0.244936509394217E+00
             -0.432952262217206E+00
              0.794070155256357E-01
              0.900843040367551E+00
             -0.178469293728408E+01
             -0.505610865446011E+00
              0.103691614707465E+01
              0.153983919158830E+01
             -0.192343384990697E+00
              0.219376710431149E+00
              0.112091666615980E+01
              0.320850219090454E+00
              0.632796010049841E-01
             -0.824278431097415E+00
              0.295185595303105E+00
             -0.682985049785087E+00
             -0.138821949060856E+00
             -0.454885561141467E+00
             -0.291544910164767E+00
              0.523959176086132E+00
              0.167294672673263E+01
             -0.165162985651334E+00
              0.316688518929364E-01
             -0.194090493423977E+01
             -0.386496095102364E+00
             -0.745918362407557E+00
             -0.379812625527229E-01
             -0.101520769268592E+01
              0.193593667039204E+01
              0.184079337806314E+01
              0.394377755680276E+00
             -0.515498978022281E+00
              0.397491624117476E+00
              0.410838083348505E+00
             -0.979439743771527E+00
             -0.202203393157674E+00
              0.441164239137498E+00
              0.252615369146068E+00
              0.107315237480550E+01
              0.818671834268642E+00
             -0.443305061683297E+00
              0.432716365224382E+00
             -0.206539904617555E+01
             -0.291787304648106E-01
              0.190704672925449E+01
              0.401746389899149E+00
             -0.698074587105104E-01
              0.565324113555057E+00
             -0.498399307311037E+00
              0.182799045506071E+01
             -0.446703819286667E+00
              0.161957807992940E+01
              0.811658118947101E+00
             -0.952928859903423E+00
              0.705757148196306E+00
             -0.583115615720488E+00
             -0.144262525472372E+01
             -0.169712668292201E+00
             -0.113988763604015E+01
             -0.109792553437503E+01
             -0.238457535529384E-01
              0.816602961933382E+00
             -0.312471360653656E+00
             -0.629184898258671E+00
              0.157930828150869E+00
             -0.137154298047706E+01
             -0.620671264466661E-01
             -0.184640818646720E+01
              0.109873030154822E+01
             -0.842468261171692E-01
             -0.103806811578082E+01
             -0.321483339392292E+00
              0.367535076702471E+00
             -0.820050172542004E+00
             -0.929267549492971E+00
              0.194226943713855E+01
             -0.601477987898732E+00
             -0.768342550540197E+00
              0.688962706972922E+00
             -0.485582429094170E+00
              0.122646315534969E+01
             -0.616785802371957E-01
              0.397608382743737E-01
              0.233302856296200E+01
             -0.163609783645241E+00
             -0.823811209847591E+00
             -0.103433644393704E+01
             -0.107313514819374E+01
             -0.798015767748868E+00
              0.623563921252909E+00
              0.674589433640016E+00
              0.601389882415142E+00
              0.156849457025887E+01
              0.120100289091442E+00
              0.498880606003085E+00
             -0.120794355660009E+01
              0.461937060315813E-01
             -0.317905727292572E+00
             -0.580779834566094E+00
             -0.170906874964448E+00
              0.698341950263982E+00
              0.804005920390928E+00
             -0.557204501917260E-01
              0.284847393666022E+00
              0.574430410267428E+00
              0.712077713634854E+00
             -0.497545787629863E+00
             -0.197299604004805E+00
              0.637690911534161E-02
             -0.551136061522470E+00
             -0.505203454078824E-01
             -0.871223327331456E+00
              0.167772546294427E+01
              0.130096713838968E+01
             -0.393183152809579E+00
              0.365517389575905E+00
             -0.128309404055407E+00
             -0.690843094085008E+00
              0.800618687659291E+00
             -0.194689219978994E+00
              0.784249761363209E+00
             -0.100048762704373E+01
              0.374408386171455E+00
             -0.160974193234168E+00
             -0.112797668706322E+01
             -0.498740272978598E+00
              0.506681667547017E+00
             -0.208333181062860E+01
              0.815942802612664E+00
              0.985372219989359E+00
             -0.216758201096988E+00
             -0.159991969183946E+00
             -0.818886293012886E-01
              0.571991230092765E+00
             -0.718572668293421E+00
              0.649373426311281E+00
              0.689014973929751E+00
             -0.188665555580304E+01
             -0.781964857980343E+00
              0.510188759006585E+00
             -0.269092398971695E+00
              0.106052496428375E+01
             -0.131921422052106E+01
             -0.226057893538378E+00
             -0.836734342285599E+00
             -0.276869976042304E+01
              0.167224917998877E+01
             -0.126790554435403E+01
             -0.143281949601242E+01
              0.131331911916750E+00
              0.273628601238243E+01
              0.155115631617441E+00
             -0.709280261551474E+00
             -0.330678623559795E-01
             -0.754015853240650E-01
             -0.180638710887084E+01
             -0.115790309224733E+01
              0.182253530222616E+01
             -0.266238908289638E+00
             -0.755784589608582E+00
              0.101696352562568E+01
             -0.688694507911824E+00
              0.702439915028412E+00
              0.101521806455071E+01
             -0.111010415321515E+01
             -0.600763905565103E+00
             -0.678627401334537E+00
             -0.376132009754492E+00
             -0.411193166184360E+00
             -0.409386866185386E+00
              0.423772010998698E+00
             -0.758048482417669E+00
              0.583016522802005E+00
              0.115653469409332E+01
             -0.123770110449924E+00
             -0.447008700582564E+00
              0.325191018475505E+00
              0.115156437636288E+01
              0.117459192477623E+01
              0.240053325502383E+00
             -0.239475351612219E+00
             -0.247123699038454E+00
             -0.113334029227844E+01
              0.864107929104518E+00
             -0.524105068629411E+00
              0.497681135357970E+00
             -0.269731276628457E+00
              0.540392671732599E+00
              0.366903880947190E+00
             -0.173376027911909E+01
             -0.526520243214836E+00
             -0.166541091245361E+01
             -0.862660242736151E+00
              0.892613211547695E-01
             -0.422633893193922E+00
              0.750448996394274E+00
             -0.603119502182726E+00
              0.782118484341408E-01
              0.151391128381748E+00
              0.147173473286297E+01
              0.766087843904114E+00
             -0.701069979580503E+00
             -0.515107713862637E-01
              0.328113533508192E+00
              0.785274742757807E+00
             -0.136528785872070E-01
              0.120178662548701E+01
              0.580777409852409E+00
              0.190348384363816E+01
              0.689061172154779E-01
              0.130426678847612E+01
             -0.584511877959985E+00
             -0.827970517810008E+00
              0.340170416672176E-01
              0.245045938764932E+00
              0.468942794361634E+00
             -0.462925983900549E+00
             -0.224469836438647E+00
              0.493191815173454E+00
             -0.100844059746228E+01
             -0.127953179990216E+01
              0.168904107937468E+01
             -0.128550844137770E+00
             -0.765152694328811E+00
             -0.109779180266414E+00
             -0.289904353024999E+00
              0.951400148450714E+00
              0.760431298903355E+00
             -0.429995956007275E+00
              0.604971012029676E-02
             -0.543494659674766E+00
             -0.754924276828115E+00
             -0.503783671527852E+00
             -0.206877806792889E+01
              0.442937154655425E-01
             -0.135727753919604E+01
             -0.125288329847450E+01
             -0.776897275510697E+00
              0.477837285447839E+00
             -0.812063748756199E+00
              0.520265784942213E+00
             -0.138144982087088E+01
              0.392971383037377E-02
             -0.898390233596453E+00
              0.173990160575393E+00
              0.163311609903497E+00
              0.762776596709529E+00
             -0.439418181300894E+00
             -0.397358629671725E+00
              0.684898044143703E+00
              0.126040434683602E+01
              0.688839464209274E+00
              0.228280860799025E+00
             -0.158414243617488E+01
             -0.340170849169421E+00
             -0.580324416198149E+00
             -0.129974706611876E+01
              0.906984520436838E+00
             -0.728669477951255E+00
             -0.163785282139381E+00
             -0.593568553256089E+00
             -0.209095121092325E+01
              0.119315765166652E+01
             -0.389628546010341E+00
              0.814293001743787E+00
             -0.157345599866452E+01
              0.138819907825592E+01
              0.138408054913391E+00
             -0.539309175914132E+00
              0.226529159976234E+00
             -0.409447118022161E+00
             -0.130955842786758E+01
              0.369088036823648E+00
              0.853390209984739E+00
             -0.364275474472109E-01
             -0.735251480824159E+00
             -0.344722880427826E+00
              0.448957949696148E+00
              0.790295626636552E+00
              0.130420302681564E+01
              0.468286546981505E+00
             -0.490157914344608E+00
              0.214586922861565E+01
              0.438600886301648E+00
              0.101504500971845E+01
             -0.352532621093538E+00
              0.624878080993451E+00
              0.518945370681706E+00
             -0.130280235318532E+01
             -0.472640072696906E+00
             -0.857515968684827E+00
             -0.895966801603879E+00
             -0.265172797332449E+00
             -0.166825238826982E+00
             -0.997588646218011E+00
             -0.234199450090544E+01
             -0.571464030146710E+00
              0.279727934434977E+00
              0.132273718569651E+00
              0.349013621223235E+00
              0.840114088915620E+00
              0.212944750280332E+00
              0.666115126502966E+00
             -0.919710532781693E+00
              0.903666389738760E+00
             -0.825851174128800E+00
             -0.140374535336435E+01
              0.441100495420077E+00
             -0.900582498660382E+00
             -0.837507109041655E+00
             -0.336915990229144E+01
             -0.148589959627510E+00
              0.178947846459989E+01
              0.853828750536929E+00
             -0.212432900093951E+00
             -0.226337576871838E+00
              0.958041382798739E+00
              0.134893251684819E+01
             -0.825386107094271E+00
             -0.274935127354794E+00
             -0.775094947530497E+00
             -0.694668034381316E+00
             -0.618390053833606E+00
              0.215070863833459E+00
              0.145760970774645E+01
             -0.137733263256413E+01
             -0.115589211920916E+01
              0.839838258233669E-01
             -0.319547012695102E+00
             -0.365502474836885E+00
             -0.188014781607176E+01
              0.134077729793797E+01
              0.407375062127224E+00
              0.205214310308846E+00
              0.110288749589321E+01
             -0.701110405816878E+00
              0.711111808326675E+00
              0.612597878803097E+00
              0.240860674895416E-01
             -0.174225530167688E+00
              0.169810347938015E+00
             -0.334915211339176E+00
              0.112589478220309E+01
             -0.828718742055043E+00
              0.991794496895092E+00
              0.197399098905129E+00
              0.368450948482851E+00
              0.407938912089699E+00
             -0.171993921869324E+01
              0.221911383055839E+00
             -0.141232655206403E+01
             -0.101545061158188E+01
             -0.100119664533043E+01
             -0.112312692591688E+01
             -0.802392663094764E-02
              0.407493738125488E+00
              0.105703254356163E+01
              0.147647142954188E+00
              0.318743180623628E+00
             -0.145939260270554E+01
             -0.587307373755321E+00
              0.684361699528528E+00
             -0.905472255392232E-01
             -0.808075796857004E-01
             -0.210941417889609E+00
              0.749976251113120E+00
             -0.191418005893693E+01
              0.280981880004085E+00
              0.429820689013153E+00
              0.823030943408192E+00
              0.779451550579840E+00
             -0.119395671419333E+01
              0.350909819410970E+00
              0.141916589288755E+00
              0.154095034446472E+00
              0.138762092266111E+00
             -0.412204383288866E+00
             -0.932647408613274E+00
              0.381262869831296E+00
              0.122035164106113E+01
             -0.149167110552995E-02
              0.298737585855247E+00
              0.266429351469131E+00
             -0.665939062414323E+00
             -0.707662068748125E+00
             -0.260944715460815E+01
             -0.797554421598252E+00
             -0.126121689770407E+01
             -0.125829221089687E+00
             -0.144904069817180E+01
              0.158923221959703E+01
             -0.716371532669445E+00
             -0.116733839568042E+01
             -0.330540098655442E+01
              0.142121909217780E+01
              0.317987881601729E+00
              0.241231132246367E+00
             -0.128748074946043E+01
              0.883956670544048E-01
             -0.352446737182494E+00
             -0.656855155014569E+00
              0.176786647133357E+00
              0.684683894959359E+00
              0.100796490739141E+00
             -0.451727999105135E+00
              0.970176768621709E-01
              0.323777777331333E-01
              0.205394890079393E+00
             -0.142068224090544E+01
              0.156514560130739E+01
             -0.876077895878459E+00
             -0.560631193977507E+00
             -0.111720001883677E+01
             -0.234215386680544E+01
              0.932617601294941E-01
             -0.123453751608402E+01
             -0.370946813912873E+00
              0.643451584806296E+00
             -0.582043619700730E+00
             -0.262457580611150E+00
             -0.282622946256568E+00
             -0.402859632879336E+00
              0.758207492902936E-01
              0.109278673612508E+01
             -0.105506247917510E+01
              0.222051169565884E+01
             -0.546305470558065E+00
              0.675344362891524E+00
             -0.404405102383645E+00
              0.247607625161732E+00
             -0.251165120163312E+00
              0.937073499993204E+00
              0.132210818694799E+01
              0.384277194668271E+00
              0.913693503599402E+00
             -0.607634778135886E+00
             -0.167605669572352E+00
             -0.493841700342950E+00
              0.133684373880764E+01
              0.115368865756866E+01
              0.837994740342413E+00
             -0.272420208510798E+00
             -0.539027220717660E+00
              0.511162076665592E+00
             -0.623296710333543E+00
             -0.309542443634944E+00
             -0.119933686160772E+00
             -0.765575416574966E+00
              0.102751408812043E+01
             -0.240801809999655E+00
              0.756315153452971E+00
              0.485620408878865E+00
              0.311140718821821E+00
             -0.711054984392585E+00
              0.510375132266772E+00
             -0.283028707001447E+00
             -0.143896774506096E+00
             -0.165698577061155E-01
             -0.100324307948153E+01
              0.163000288270296E+01
             -0.559114733164205E+00
              0.458183562766834E-03
              0.531432967687893E+00
              0.446844792622691E+00
              0.164447759421423E+01
             -0.466098754924286E+00
              0.157873565888509E+01
              0.140706817463827E+01
             -0.195602599555166E+01
              0.143569224731505E+00
             -0.381314050251512E+00
              0.258975597353487E+00
              0.923027010490394E-01
              0.467606526063303E+00
              0.135668203588950E+01
              0.213083863481470E+01
             -0.153700988380421E+01
              0.159755210786124E+01
             -0.214049867255787E+01
             -0.184721980443793E+01
             -0.322346346158854E+00
              0.218720855269581E-01
              0.168211888101200E+01
              0.666019040779080E+00
             -0.268306573521071E+00
             -0.174138512382947E+01
              0.141473819814808E+01
             -0.864600540659115E+00
              0.467133125833783E-01
             -0.111897491982364E+00
              0.275492000468313E+01
             -0.463614831381616E+00
             -0.221919852955016E+01
              0.642493775954552E+00
             -0.343659617881425E+01
              0.273435852307871E+00
             -0.818909459067954E+00
             -0.372893259085568E+00
             -0.540964755505175E+00
             -0.126108501365104E+01
              0.762952682257583E+00
             -0.777325196191168E+00
             -0.306199310303022E+00
             -0.159205105910610E+01
             -0.846853953662245E-01
             -0.115810915257561E+01
             -0.163323956616572E+01
             -0.221085364215623E+01
              0.165261012943470E+00
             -0.800492335481714E+00
              0.243130125588612E+00
             -0.297448740366725E+00
             -0.176126621691676E+01
             -0.136753301125464E+01
             -0.120289738383583E+01
             -0.125246706649648E+01
              0.110392745531960E+01
              0.111551650855118E+00
             -0.105379245548077E+01
             -0.529369808921848E+00
             -0.591547883530635E+00
              0.889862473261743E+00
             -0.637696636984479E+00
             -0.781325959762889E-01
             -0.684492715158091E+00
             -0.835400591262758E+00
             -0.889735246473575E+00
              0.856477078601407E+00
             -0.259413072179585E+00
             -0.195231417268853E+01
              0.162905729320257E+01
              0.951401392692315E+00
              0.526680063297498E-01
             -0.172912701443305E+01
             -0.156959361740837E+01
              0.101576139099530E+00
              0.468318341653529E-02
             -0.727208167876991E+00
             -0.914480009339216E+00
              0.622351442048780E+00
             -0.102119120636623E+00
              0.580462383253854E+00
              0.100457946154658E+01
              0.738059105102947E+00
              0.513468856589395E+00
              0.455516913742399E+00
             -0.471509733528801E+00
             -0.331044032730819E+00
             -0.396932935766406E+00
             -0.815251489050443E+00
             -0.986847794968345E+00
             -0.126915500999577E+01
             -0.750265198028117E+00
             -0.268477785529559E+00
             -0.154745164067226E+01
             -0.385376301270350E+00
              0.774015278983364E+00
             -0.182297613966664E+01
              0.793933289921222E+00
              0.641048927339759E+00
             -0.153723031826948E+01
             -0.117164623441181E+01
             -0.497607082327352E+00
              0.247438278044751E+00
             -0.874785801075763E+00
              0.160662218452149E+01
              0.141789761310603E+01
             -0.163372292146063E+01
              0.853292964096797E+00
              0.762476601460229E+00
              0.214684403219120E+00
              0.383904855874926E+00
             -0.905085173934400E+00
             -0.337245003978061E+00
              0.151531314716365E+00
              0.440244086665062E+00
              0.865229070908030E+00
             -0.114153169549012E+01
             -0.252642775620709E+00
              0.333715995376461E+00
              0.238447050627024E+00
             -0.737709761322975E+00
              0.389047864002952E+00
             -0.517469825958770E+00
             -0.377897020749218E+00
             -0.315194121469640E-01
             -0.130668041917091E+01
             -0.149052795697093E-01
             -0.155229535512827E+00
             -0.333336246717927E+00
              0.362443602271399E+00
             -0.110573418714849E+01
              0.125381064188671E+01
             -0.447333814670019E+00
             -0.286061871142450E+01
             -0.181824068916610E+01
              0.729782997336698E+00
             -0.905982146391970E+00
             -0.463703597977911E+00
             -0.483242441734351E+00
             -0.415991709085088E+00
             -0.220648825545846E+01
              0.300784971372536E-03
             -0.130965758191408E+01
             -0.731681538360505E+00
              0.402211002320929E+00
              0.169472454058111E+01
              0.109441518907732E+00
              0.650966611108919E-01
              0.127886096166393E+01
             -0.125504638883390E+01
              0.578778208141056E+00
              0.116846738727025E+00
             -0.113760141491588E+01
             -0.673100156040851E+00
              0.407592969958015E+00
              0.718206305904543E-01
              0.369695510190820E+00
              0.287350490863915E+00
             -0.499313125917164E+00
             -0.713217165770512E+00
             -0.105743777052180E+01
              0.106699462605988E+01
             -0.145066754491738E+01
             -0.107166951124528E+01
              0.307445369526594E+00
             -0.177339059703504E+01
              0.509315866321236E+00
              0.127760011164411E+01
             -0.258362829096933E+00
              0.443270362995016E+00
             -0.731881986328247E+00
             -0.475665265572113E+00
              0.231364977885384E+00
              0.766373360381492E+00
             -0.770877295090445E+00
              0.465122706574776E+00
             -0.302019272447996E+00
              0.187394063103195E+00
              0.380889909868469E+00
              0.179935785771945E+00
             -0.276553998568671E+00
             -0.170092206395669E-01
              0.234663001554722E+00
              0.593339610756213E+00
             -0.149738460751850E+01
             -0.581519526589283E-01
              0.111317450244272E+01
             -0.184613507183549E+01
              0.699054781929226E+00
             -0.239930667814064E+01
             -0.252115036563705E+00
             -0.299010937068835E+00
             -0.448559866683915E-01
             -0.279906568334468E+00
             -0.586148765655954E+00
             -0.243573843674064E+00
              0.247591975690966E+00
             -0.554073325528436E+00
              0.228717797907809E+00
              0.192859761805303E+01
             -0.119462199142272E+01
             -0.532219938077326E+00
              0.898323823494996E+00
              0.432586087377328E+00
              0.911197379835151E+00
              0.442994978325118E+00
              0.327320902357733E+00
             -0.298618949346160E+00
             -0.104254841803246E+01
             -0.949776042842398E+00
             -0.766379967971375E+00
              0.137109386862353E+00
             -0.896034919823373E+00
             -0.245758889612627E+00
              0.125177018350518E+00
              0.525580836833491E+00
             -0.138144477266309E+00
              0.125370812027820E+01
             -0.142076566481615E+01
             -0.887791151571982E-02
             -0.161641851727378E+00
              0.675189951407204E+00
             -0.896300259356142E+00
             -0.588405755405612E+00
              0.254890321782257E+00
              0.940798800339347E+00
              0.161421870964764E+01
              0.620850862945097E+00
              0.985209270651383E+00
             -0.515421771117010E+00
              0.133329629410920E+01
              0.134196360872369E+01
             -0.831808982171189E-02
              0.624745074839111E+00
              0.791669594902809E+00
             -0.435824866222653E+00
              0.324593853361636E+00
              0.139170992037131E+01
             -0.435533761717258E+00
             -0.118271459064275E+00
             -0.131935427686027E+01
              0.458292677043434E+00
             -0.329972598860648E+00
              0.465369908612827E+00
              0.182301391071009E-01
             -0.829306878173097E+00
              0.958639165083463E+00
              0.827830302937473E+00
             -0.676490545431982E+00
              0.366067120252950E+00
             -0.127035821037753E+01
             -0.115335627402210E+01
              0.531708111533208E+00
             -0.144533891526359E+01
             -0.739933943717798E+00
              0.405748822639040E-02
              0.182470181927705E+01
             -0.483975473552024E+00
             -0.232028045124157E+00
             -0.447960671816549E+00
              0.236378836753211E+01
              0.394102884549947E+00
             -0.904385048237884E+00
              0.150740287010379E+01
              0.132037626962616E+01
              0.697257283439417E+00
              0.169973257625012E+01
              0.186622034935811E+01
             -0.553088863777229E-01
             -0.607683046907320E+00
             -0.512323723497609E+00
              0.589775205821516E+00
              0.828746779530983E+00
             -0.157668387298179E+00
             -0.515241319855459E+00
             -0.120451947514308E+01
             -0.420412222151232E+00
             -0.981764481156596E+00
              0.724898525493766E+00
              0.375874158865381E+00
              0.128373643376992E+01
              0.301827433977371E+00
             -0.480521083311523E+00
             -0.186074610975140E+00
              0.841138969764493E+00
              0.212111340101606E+00
              0.131947621804656E+01
              0.116325780992927E+01
             -0.166716227223715E+00
             -0.195457692882173E+00
             -0.217698320112086E+01
              0.103822149186339E+01
              0.999516716822413E-02
              0.123186847878492E+01
             -0.554053086189110E+00
             -0.141285456000137E+01
              0.408098625209203E+00
              0.154929012863128E+01
             -0.535032170445393E+00
              0.138790588745950E+01
             -0.151605277026073E+01
             -0.557784926871253E+00
             -0.182590173761170E+01
              0.325534447892307E+00
              0.842694747703625E-01
              0.198143371964071E+00
             -0.131717150496225E+01
              0.198301947111153E+01
              0.113918963710590E+01
              0.119626243626454E+00
             -0.118074169494301E+01
              0.430637316554795E+00
             -0.365908095202813E+00
             -0.324791690428901E+00
             -0.590655401329290E+00
              0.345860983788396E+00
             -0.379620159887963E+00
             -0.386834557508522E+00
              0.505323115194189E+00
              0.495310531187533E+00
             -0.191363426288067E+01
              0.415928429726464E+00
              0.139791789539370E+01
              0.896202959591208E+00
             -0.274402945850130E+00
             -0.558103646581147E-01
             -0.780532461690103E+00
              0.117740423852047E+01
              0.173604275618565E+00
             -0.535259739183571E-01
             -0.124826843134180E+00
              0.229967694552411E+01
             -0.175523291166026E+00
              0.454488637312290E+00
              0.158618115052887E+01
              0.202896427490570E+01
              0.125516965683275E+01
              0.816009832949010E+00
             -0.136561650446723E+01
             -0.983635268054472E+00
              0.769485059007809E+00
              0.122831555331311E+00
              0.651034069734432E+00
              0.256127658198829E+00
              0.138477901869756E+01
             -0.168632877169023E+01
             -0.103258928030246E+01
             -0.247928121968075E+00
             -0.184807181562358E+01
              0.416424009863213E+00
              0.100272195992522E+01
             -0.162476017348112E-01
             -0.426947070834027E+00
              0.433963301250638E+00
              0.283069107856104E+01
              0.686418377761848E+00
              0.379637047372562E+00
             -0.989386673679603E+00
             -0.120972856423668E+01
             -0.278505619129654E+00
              0.609777143719951E+00
             -0.126738873875933E+00
              0.571691821914945E+00
              0.750144629155979E+00
             -0.128299174946188E+01
              0.578903479537201E+00
              0.665839156914902E+00
              0.117828187784714E+01
             -0.217883609325444E+00
              0.127075865921974E+00
             -0.143698105098412E+00
             -0.927015114111646E+00
             -0.155242211372880E+01
              0.158823874527980E+01
             -0.222096581799940E+00
             -0.110826792423719E+01
              0.190314618373961E+00
             -0.655172521130578E+00
              0.179241634794890E+01
             -0.484780793471115E+00
             -0.805428340376311E+00
              0.797709015589813E+00
             -0.339015406499319E+00
              0.991316401422004E+00
              0.734330831249395E-01
              0.193254048998601E+01
              0.112269863144370E+01
              0.289157670254808E+00
             -0.842032477556743E+00
              0.616780425058933E+00
             -0.114311934543580E+01
             -0.818200171836501E-01
              0.136386132804590E+01
             -0.535585361237067E+00
             -0.906503009268143E+00
             -0.487625169506524E+00
              0.107816119902801E+01
              0.234811998525320E+00
             -0.170457959762783E+01
              0.728342750119111E+00
              0.117240483185302E+00
              0.247927777318061E+00
             -0.102136612061936E+01
              0.223142088126886E+00
              0.720040158067347E+00
              0.948023213029240E+00
              0.138953504332369E+01
              0.758138474732465E+00
              0.160825784218245E+00
             -0.118271856768120E+01
             -0.878945553516573E+00
             -0.133403436576865E+01
             -0.326042560401023E+00
              0.728667004084291E+00
              0.144024911978269E-02
              0.108717099125633E+01
             -0.679446377922291E+00
              0.355792012955510E+00
             -0.514203972432964E+00
             -0.570343771032584E+00
              0.124536127482539E+01
              0.105001862832442E+00
              0.132975546287673E+01
              0.120081731895169E+00
              0.400417415144202E+00
             -0.333080567148498E+00
              0.126215675100986E+01
             -0.366535668928152E+00
              0.644011349416707E-02
             -0.164539272186039E+01
             -0.140203043006871E+00
              0.145524156257858E+01
              0.134016055563686E+01
              0.538864595623795E+00
             -0.336588336644597E+00
              0.124153770479688E+00
             -0.513618640653272E+00
             -0.446042604804468E+00
              0.190084853444610E+01
              0.172497458236823E+00
             -0.629326562621188E+00
             -0.222567328341636E+01
             -0.867210666122404E+00
             -0.804052560878857E+00
             -0.127254995655599E+01
             -0.126709247089427E+01
             -0.148739688662191E+01
             -0.950391181179938E+00
             -0.560929683990972E+00
             -0.101652584741852E+01
              0.928210425399736E+00
             -0.341968944028890E+00
             -0.172563290275269E+01
              0.875073638445943E+00
             -0.723739775927490E+00
             -0.166405155358102E+01
              0.212645372632474E+01
             -0.546702515587424E+00
              0.298227634455010E+00
              0.780045978453915E+00
              0.319536353903620E+00
              0.561772744935674E+00
              0.206344362003574E-01
              0.283815485089449E-01
             -0.278429625511968E+00
             -0.156654511551475E+01
              0.228066012225149E+00
             -0.250129521895359E+01
              0.155388195001376E+01
             -0.848379373537290E+00
             -0.407118703654837E+00
             -0.444049667997520E+00
              0.494448264463755E+00
             -0.322775757763902E+00
              0.584555501511347E+00
             -0.124471696290896E+01
              0.753183076490126E+00
              0.926306609573314E+00
              0.159964008689885E+00
              0.203178697066628E+00
              0.458207618727084E+00
              0.226200135441966E+00
              0.616896508769431E+00
             -0.828014681524456E-01
             -0.161513737909111E+01
              0.202325102789064E+00
             -0.748936621378165E+00
             -0.710211234076050E-01
              0.120572579935646E+01
             -0.167388492339210E+01
              0.591832158746364E-01
              0.813698779713317E-01
              0.201665923542049E+00
              0.636809073276260E+00
             -0.263027786850989E+00
              0.176717403075596E+01
              0.737055754873069E+00
             -0.293111193042569E+00
             -0.167561479782698E+00
              0.145889926001807E+00
              0.164710897135779E+01
             -0.101550573884052E+01
             -0.212043864072191E+01
              0.615454249185882E+00
             -0.175354261165545E+00
             -0.343982635663630E+00
              0.412609020089855E+00
              0.158266105343158E+01
              0.868859974898712E+00
             -0.353979368702618E+00
             -0.115366307521621E+01
             -0.284844181378754E+00
              0.574252279105759E+00
             -0.393782401054844E+00
             -0.161005698417744E+01
             -0.220477985117662E+00
             -0.208229448798105E+01
             -0.109989360386366E+01
              0.186643402678464E+01
             -0.111262099072360E+01
             -0.152721531797524E+01
             -0.112091795487608E+01
             -0.856584662615668E+00
              0.731050431230532E+00
              0.180664846434223E+01
             -0.230065587636402E+00
              0.559232463391092E+00
             -0.443213623965953E+00
             -0.143980165148567E+01
              0.110064053108962E+01
             -0.103764158890740E+01
              0.506403692166386E+00
              0.580650066965406E+00
             -0.353322413499598E+00
              0.759927448578757E+00
              0.797253432374269E+00
              0.259478048303990E+01
             -0.193964020899317E+00
             -0.123507151871482E+01
             -0.140729785653194E+01
             -0.418531335535724E+00
             -0.925494880587351E+00
              0.194017015473934E+01
             -0.960400071160870E+00
              0.215461984656987E+00
              0.290696725237174E-01
             -0.396146280693958E+00
             -0.184535896772852E+01
             -0.141532518057458E+00
              0.212903128049084E+01
              0.493054033870641E+00
              0.151596256337502E+00
             -0.127096634296610E+01
             -0.114001347185292E+01
             -0.405062660878299E+00
              0.948028486910193E+00
             -0.573746054689215E+00
              0.211207221902044E+01
             -0.103202894841961E+01
              0.413395387962510E+00
             -0.252384729741028E+00
             -0.129168024100597E+01
              0.153743912489064E+00
             -0.120756016618976E+01
             -0.155965577054864E+01
              0.252651224964128E+00
              0.265999024697083E-01
              0.103638519976658E+01
              0.587023355598981E+00
             -0.750693602837807E+00
              0.457648975904906E+00
             -0.190315875503338E+01
             -0.981458312224419E+00
              0.196947683292234E+01
              0.455174420850359E-01
             -0.777587889458644E-01
             -0.504077341224701E+00
             -0.106937890299488E-01
             -0.268548251337881E+00
              0.197943387397494E+01
              0.878998925976907E+00
             -0.155082567458374E+00
              0.337743211010810E-01
             -0.794162836062394E+00
             -0.245373529663398E+00
             -0.129472970158874E+01
              0.110815785438024E+01
              0.142574559848194E+00
              0.147916406727196E+00
              0.413576340184974E+00
             -0.313973727687376E+00
             -0.495408338270035E+00
              0.223641557319452E+00
             -0.238398115967899E+01
             -0.208669735083694E+00
             -0.216830421214025E+00
             -0.124820891352146E+00
              0.100128351023133E+01
              0.138334962402244E+01
              0.382549871167727E+00
             -0.196621701493778E+01
              0.134509396223127E+01
             -0.511845770581107E+00
             -0.784310572005712E+00
             -0.185266922946260E+01
             -0.546838533352540E+00
              0.136228630282558E+01
              0.734735566214171E+00
              0.365476067657855E+00
              0.758773403391760E+00
             -0.117890326074038E+01
             -0.105638921168744E+01
              0.134561624069301E+01
              0.884361418192971E+00
              0.981177331927166E+00
              0.218560463409645E+00
              0.237970290205771E+00
              0.111469828144524E+01
              0.209365255980770E+01
             -0.351488042103983E+00
              0.874594075488226E+00
             -0.673563850950849E+00
             -0.932330794216252E+00
             -0.747300780566383E+00
             -0.728539884882377E+00
             -0.299418598212062E+00
             -0.999808736142263E+00
             -0.389308925317604E+00
             -0.271984470276930E+01
              0.658749764074208E+00
              0.617423338255438E+00
             -0.736825074444787E-01
             -0.777984979052727E+00
             -0.376429584612066E+00
             -0.120885197048272E+01
              0.108880968640025E+00
              0.167210465370921E+01
             -0.386619962282973E+00
             -0.407826911306308E+00
              0.405958429180275E+00
             -0.108689261096243E+01
              0.181096197816866E+01
              0.323528985786068E+00
              0.101385421410033E+00
              0.109788537114045E+01
             -0.155992337968148E+00
              0.125193735715488E+01
              0.437771311658532E+00
             -0.180487963362990E-01
              0.292128433373914E+00
             -0.243465472161234E+00
              0.140189804879533E+01
              0.153641548455160E+00
              0.472610701168140E+00
             -0.191507065748633E+00
              0.222171587271795E+00
             -0.199365349224441E+01
             -0.744288861974393E+00
             -0.105899416294810E+01
              0.105338817573032E+01
             -0.763832034144095E+00
             -0.115417596991874E+01
              0.127782687620445E+01
             -0.289698959798196E+00
              0.870779680150398E+00
             -0.188332395782573E+01
              0.357650012180688E+00
              0.711488707734871E-01
              0.150069747744363E+00
             -0.298998323205373E+00
             -0.140744842280501E+00
              0.106357554179373E+01
              0.581186337604471E-01
             -0.114097920904751E+01
             -0.472788435034277E+00
              0.372088836643433E+00
             -0.244351034333091E+01
             -0.182738870611097E+01
              0.966269430452460E-02
              0.360618070249572E+00
             -0.110747114642559E+01
              0.327763015667326E-01
              0.215831623805086E+01
              0.601378356765874E+00
             -0.113630844902158E+01
              0.160841940286235E+00
             -0.225696088003626E+00
              0.288121279249708E+00
             -0.774049123025424E+00
              0.505114528284239E+00
              0.491176370694504E+00
             -0.187981973000083E+00
              0.239679891597630E+01
             -0.654691739988769E-01
             -0.649211549717785E+00
              0.692960978321052E+00
              0.904293955932909E+00
             -0.668968442576451E+00
             -0.135165912803725E-01
              0.208671580262377E+01
             -0.187157192039553E-01
              0.109451360522248E+01
              0.355043551156918E+00
             -0.130479399497816E+00
             -0.300641744767955E+00
              0.988901056233712E+00
             -0.127046452962971E+01
             -0.369149813651042E-01
             -0.434808330967392E+00
             -0.847340801956668E+00
              0.235338860249121E+00
              0.542216008107776E+00
             -0.552434637815988E-01
             -0.391968375136997E-01
             -0.892552612130666E+00
              0.301310651446223E+00
             -0.198944353032551E-01
             -0.447682869944203E+00
             -0.420315655061459E+00
              0.333445930528785E+00
             -0.221973176107504E-02
             -0.827426950984818E+00
             -0.229066487308763E+01
              0.142282620450354E+00
              0.288827204768515E+00
             -0.104979220767385E+01
             -0.542774229367538E+00
              0.175167428659315E+01
              0.295263734024896E+00
              0.969673921609076E+00
              0.251990189233321E+00
              0.859573894302303E+00
              0.438475814130292E-01
             -0.844086774468738E+00
             -0.291834292597492E+00
              0.105669052437428E+00
              0.677875810515451E+00
              0.156019792911196E+01
              0.104229907369112E+01
              0.727373442216646E-01
              0.244343453450724E+00
              0.128891478500354E+01
              0.609048578088264E+00
             -0.145299751894714E+01
             -0.589519050671754E+00
              0.222318053910275E+00
              0.220640737243901E+00
              0.533910271613535E+00
             -0.107583864499850E+01
              0.834169524405100E-01
              0.896321544299013E+00
              0.102959263542242E+01
             -0.890867440030600E+00
              0.908524030304108E-01
             -0.598138187936970E-01
             -0.458020264167113E+00
             -0.508596874096948E+00
             -0.226909876060780E+00
             -0.301016358436447E+00
              0.250149111603875E+00
              0.894426378453690E+00
             -0.692653583275164E+00
              0.172017944847568E+01
              0.709232878483830E+00
              0.572699993500125E+00
              0.807453564938583E+00
              0.499776065952403E+00
              0.767631274831953E+00
              0.117759596116891E+01
             -0.101076408547164E+01
              0.133680884197628E+01
             -0.243022559768813E+01
              0.664443028519020E+00
             -0.222198267486754E+01
              0.169688587424147E+01
              0.167730082069252E+01
             -0.170376417340635E+00
             -0.982016873755986E+00
             -0.918924743414192E+00
             -0.112406420681375E+01
             -0.140463668404068E+01
              0.116399641991569E+01
              0.909435279343352E+00
              0.515014628218957E+00
              0.513387949760078E+00
              0.974683834781412E+00
             -0.874024491531801E+00
             -0.295446513823530E+00
              0.112490528495457E+01
             -0.263069035411135E+00
              0.105274238976828E+01
              0.166412858881202E+01
             -0.831608914502464E-01
             -0.161389614988875E+01
              0.144928911935377E+00
              0.317879959730349E-01
             -0.225032073727681E+00
              0.669499022897737E-01
             -0.136274041232765E+01
             -0.137922213084615E+00
              0.313091030991307E+00
              0.326754237868852E+00
              0.107386874849228E+01
             -0.904317762138837E+00
              0.105077339996523E+01
             -0.806855144970430E+00
              0.601119228594724E+00
              0.937861546041037E+00
 
 BEEF-vdW xc energy contributions
           1 :   -14.7371041232174     
           2 :    12.0242849223533     
           3 :   -8.11554971510918     
           4 :    4.46823397303688     
           5 :   -1.78898700655988     
           6 :   0.204950421591917     
           7 :   0.464525816284883     
           8 :  -0.561727340063754     
           9 :   0.447268962217120     
          10 :  -0.381076563654698     
          11 :   0.446252190399502     
          12 :  -0.579145600688946     
          13 :   0.664063679446299     
          14 :  -0.628638091717853     
          15 :   0.469792803755119     
          16 :  -0.242052770474647     
          17 :   2.404869547095956E-002
          18 :   0.115738402843739     
          19 :  -0.152129692759303     
          20 :   0.107880813732866     
          21 :  -3.576494809941977E-002
          22 :  -1.624313582888348E-002
          23 :   2.833400753065973E-002
          24 :  -1.315925906614979E-002
          25 :  -1.809698448962394E-003
          26 :  -7.074302446564928E-003
          27 :   4.387911257089527E-002
          28 :  -9.232505948200753E-002
          29 :   0.128605064439867     
          30 :  -0.138500499927002     
          31 :   -2.04677132805981     
          32 :   -1.26918540497181     

     Writing output data file ./pwscf.save/
 
     init_run     :     68.59s CPU     71.55s WALL (       1 calls)
     electrons    :    598.77s CPU    651.15s WALL (       1 calls)
     forces       :     28.92s CPU     31.43s WALL (       1 calls)

     Called by init_run:
     wfcinit      :      2.66s CPU      2.75s WALL (       1 calls)
     potinit      :     56.92s CPU     59.14s WALL (       1 calls)
     hinit0       :      7.29s CPU      7.46s WALL (       1 calls)

     Called by electrons:
     c_bands      :    102.68s CPU    103.89s WALL (      16 calls)
     sum_band     :     47.46s CPU     54.39s WALL (      16 calls)
     v_of_rho     :    353.03s CPU    386.91s WALL (      17 calls)
     newd         :     17.22s CPU     24.28s WALL (      17 calls)
     PAW_pot      :      2.17s CPU      2.18s WALL (      17 calls)
     mix_rho      :    127.07s CPU    132.75s WALL (      16 calls)
     vdW_kernel   :     33.51s CPU     33.52s WALL (       1 calls)

     Called by c_bands:
     init_us_2    :      1.71s CPU      1.74s WALL (      33 calls)
     regterg      :     99.04s CPU    100.25s WALL (      16 calls)

     Called by *egterg:
     rdiaghg      :      0.02s CPU      0.03s WALL (      93 calls)
     h_psi        :     89.39s CPU     89.43s WALL (      94 calls)
     s_psi        :      2.66s CPU      2.66s WALL (      94 calls)
     g_psi        :      0.29s CPU      0.29s WALL (      77 calls)

     Called by h_psi:
     h_psi:calbec :      2.03s CPU      2.03s WALL (      94 calls)
     vloc_psi     :     84.16s CPU     84.17s WALL (      94 calls)
     add_vuspsi   :      2.70s CPU      2.70s WALL (      94 calls)

     General routines
     calbec       :      2.61s CPU      2.61s WALL (     114 calls)
     fft          :    307.92s CPU    307.95s WALL (    2932 calls)
     ffts         :     53.88s CPU     53.88s WALL (     525 calls)
     fftw         :     81.09s CPU     81.09s WALL (     794 calls)
 
     Parallel routines
 
     PWSCF        :  21m19.93s CPU  23m24.68s WALL

 
   This run was terminated on:  16: 9:48   8Jan2023            

=------------------------------------------------------------------------------=
   JOB DONE.
=------------------------------------------------------------------------------=
