
     Program PWSCF v.6.7MaX starts on  4Jan2023 at  9:35:56 

     This program is part of the open-source Quantum ESPRESSO suite
     for quantum simulation of materials; please cite
         "P. Giannozzi et al., J. Phys.:Condens. Matter 21 395502 (2009);
         "P. Giannozzi et al., J. Phys.:Condens. Matter 29 465901 (2017);
          URL http://www.quantum-espresso.org", 
     in publications or presentations arising from this work. More details at
     http://www.quantum-espresso.org/quote

     Parallel version (MPI), running on     1 processors

     MPI processes distributed on     1 nodes
     Reading input from chcho-gas-ensemble.in
Warning: card &CELL ignored
Warning: card / ignored

     Current dimensions of program PWSCF are:
     Max number of different atomic species (ntypx) = 10
     Max number of k-points (npk) =  40000
     Max angular momentum in pseudopotentials (lmaxx) =  3
     file C.pbe-n-kjpaw_psl.1.0.0.UPF: wavefunction(s)  2S 2P renormalized
     file O.pbe-nl-kjpaw_psl.1.0.0.UPF: wavefunction(s)  2S 2P renormalized
     file H.pbe-kjpaw_psl.1.0.0.UPF: wavefunction(s)  1S renormalized

     **************************************************************************
     Initializing libbeef V0.1.2 with the BEEF-vdW functional.
     Citation: Wellendorff et al., PRB 85, 235149 (2012).
     **************************************************************************


     IMPORTANT: XC functional enforced from input :
     Exchange-correlation= BEEF-VDW
                           (   1   4  43  14   2   0   0)
     Any further DFT definition will be discarded
     Please, verify this is what you really want


     gamma-point specific algorithms are used

     Subspace diagonalization in iterative solution of the eigenvalue problem:
     a serial algorithm will be used

 
     G-vector sticks info
     --------------------
     sticks:   dense  smooth     PW     G-vecs:    dense   smooth      PW
     Sum       34261   34261   8555              4570857  4570857  571323
 


     bravais-lattice index     =            0
     lattice parameter (alat)  =      42.9059  a.u.
     unit-cell volume          =   72798.8467 (a.u.)^3
     number of atoms/cell      =            5
     number of atomic types    =            3
     number of electrons       =        16.00
     number of Kohn-Sham states=           12
     kinetic-energy cutoff     =      60.0000  Ry
     charge density cutoff     =     240.0000  Ry
     scf convergence threshold =      1.0E-06
     mixing beta               =       0.7000
     number of iterations used =            8  local-TF  mixing
     Exchange-correlation= BEEF-VDW
                           (   1   4  43  14   2   0   0)

     celldm(1)=  42.905937  celldm(2)=   0.000000  celldm(3)=   0.000000
     celldm(4)=   0.000000  celldm(5)=   0.000000  celldm(6)=   0.000000

     crystal axes: (cart. coord. in units of alat)
               a(1) = (   1.000000   0.000000   0.000000 )  
               a(2) = (   0.000000   0.974741   0.000000 )  
               a(3) = (   0.000000   0.000000   0.945547 )  

     reciprocal axes: (cart. coord. in units 2 pi/alat)
               b(1) = (  1.000000  0.000000  0.000000 )  
               b(2) = (  0.000000  1.025914  0.000000 )  
               b(3) = (  0.000000  0.000000  1.057589 )  


     PseudoPot. # 1 for C  read from file:
     /users/bkreitz1/quantum-espresso/potentials/C.pbe-n-kjpaw_psl.1.0.0.UPF
     MD5 check sum: a169b0ebad56f5ec0d79c4633f80bf22
     Pseudo is Projector augmented-wave + core cor, Zval =  4.0
     Generated using 'atomic' code by A. Dal Corso  v.6.7MaX
     Shape of augmentation charge: PSQ
     Using radial grid of 1073 points,  4 beta functions with: 
                l(1) =   0
                l(2) =   0
                l(3) =   1
                l(4) =   1
     Q(r) pseudized with 0 coefficients 


     PseudoPot. # 2 for O  read from file:
     /users/bkreitz1/quantum-espresso/potentials/O.pbe-nl-kjpaw_psl.1.0.0.UPF
     MD5 check sum: eef08af8b58d9ec80f8fdb78829eb7cf
     Pseudo is Projector augmented-wave + core cor, Zval =  6.0
     Generated using 'atomic' code by A. Dal Corso  v.6.7MaX
     Shape of augmentation charge: PSQ
     Using radial grid of 1095 points,  4 beta functions with: 
                l(1) =   0
                l(2) =   0
                l(3) =   1
                l(4) =   1
     Q(r) pseudized with 0 coefficients 


     PseudoPot. # 3 for H  read from file:
     /users/bkreitz1/quantum-espresso/potentials/H.pbe-kjpaw_psl.1.0.0.UPF
     MD5 check sum: ae98473e6dc62675f0d0baffdab24f65
     Pseudo is Projector augmented-wave, Zval =  1.0
     Generated using 'atomic' code by A. Dal Corso  v.6.7MaX
     Shape of augmentation charge: PSQ
     Using radial grid of  929 points,  2 beta functions with: 
                l(1) =   0
                l(2) =   0
     Q(r) pseudized with 0 coefficients 


     atomic species   valence    mass     pseudopotential
        C              4.00    12.01100     C ( 1.00)
        O              6.00    15.99900     O ( 1.00)
        H              1.00     1.00800     H ( 1.00)

     No symmetry found



   Cartesian axes

     site n.     atom                  positions (alat units)
         1           C   tau(   1) = (   0.5170929   0.4605861   0.4463185  )
         2           C   tau(   2) = (   0.4855831   0.4945326   0.4842702  )
         3           O   tau(   3) = (   0.4525934   0.4524397   0.5021958  )
         4           H   tau(   4) = (   0.5530318   0.4323155   0.4602368  )
         5           H   tau(   5) = (   0.4799659   0.5412462   0.4944058  )

     number of k points=     1  Gaussian smearing, width (Ry)=  0.0050
                       cart. coord. in units 2pi/alat
        k(    1) = (   0.0000000   0.0000000   0.0000000), wk =   2.0000000

     Dense  grid:  2285429 G-vectors     FFT dimensions: ( 216, 216, 216)

     Estimated max dynamical RAM per process >       3.53 GB

     Initial potential from superposition of free atoms

     starting charge   15.99990, renormalised to   16.00000

     negative rho (up, down):  1.672E-02 0.000E+00


     %%%%%%%%%%%%%%%%%%%%%%%%%%%%%%%%%%%%%%%%%%%%%%%%%%%%%%%%%%%%%%%%%%%%%%%%
     %                                                                      %
     % You are using vdW-DF, which was implemented by the Thonhauser group. %
     % Please cite the following two papers that made this development      %
     % possible and the two reviews that describe the various versions:     %
     %                                                                      %
     %   T. Thonhauser et al., PRL 115, 136402 (2015).                      %
     %   T. Thonhauser et al., PRB 76, 125112 (2007).                       %
     %   K. Berland et al., Rep. Prog. Phys. 78, 066501 (2015).             %
     %   D.C. Langreth et al., J. Phys.: Condens. Matter 21, 084203 (2009). %
     %                                                                      %
     %                                                                      %
     % If you are calculating the stress with vdW-DF, please also cite:     %
     %                                                                      %
     %   R. Sabatini et al., J. Phys.: Condens. Matter 24, 424209 (2012).   %
     %                                                                      %
     %%%%%%%%%%%%%%%%%%%%%%%%%%%%%%%%%%%%%%%%%%%%%%%%%%%%%%%%%%%%%%%%%%%%%%%%


     Starting wfcs are   14 randomized atomic wfcs
     Checking if some PAW data can be deallocated... 

     total cpu time spent up to now is       77.1 secs

     Self-consistent Calculation

     iteration #  1     ecut=    60.00 Ry     beta= 0.70
     Davidson diagonalization with overlap
     ethr =  1.00E-02,  avg # of iterations =  6.0

     negative rho (up, down):  1.361E-02 0.000E+00

     total cpu time spent up to now is      117.6 secs

     total energy              =     -82.60029684 Ry
     estimated scf accuracy    <       0.53790369 Ry

     iteration #  2     ecut=    60.00 Ry     beta= 0.70
     Davidson diagonalization with overlap
     ethr =  3.36E-03,  avg # of iterations =  2.0

     negative rho (up, down):  1.076E-02 0.000E+00

     total cpu time spent up to now is      156.1 secs

     total energy              =     -82.59938228 Ry
     estimated scf accuracy    <       0.16790852 Ry

     iteration #  3     ecut=    60.00 Ry     beta= 0.70
     Davidson diagonalization with overlap
     ethr =  1.05E-03,  avg # of iterations =  2.0

     negative rho (up, down):  9.845E-03 0.000E+00

     total cpu time spent up to now is      194.8 secs

     total energy              =     -82.60002090 Ry
     estimated scf accuracy    <       0.06662964 Ry

     iteration #  4     ecut=    60.00 Ry     beta= 0.70
     Davidson diagonalization with overlap
     ethr =  4.16E-04,  avg # of iterations =  2.0

     negative rho (up, down):  1.186E-02 0.000E+00

     total cpu time spent up to now is      233.8 secs

     total energy              =     -82.60241504 Ry
     estimated scf accuracy    <       0.01251789 Ry

     iteration #  5     ecut=    60.00 Ry     beta= 0.70
     Davidson diagonalization with overlap
     ethr =  7.82E-05,  avg # of iterations =  5.0

     negative rho (up, down):  3.710E-02 0.000E+00

     total cpu time spent up to now is      274.8 secs

     total energy              =     -82.60119419 Ry
     estimated scf accuracy    <       0.00644958 Ry

     iteration #  6     ecut=    60.00 Ry     beta= 0.70
     Davidson diagonalization with overlap
     ethr =  4.03E-05,  avg # of iterations =  7.0

     negative rho (up, down):  7.654E-02 0.000E+00

     total cpu time spent up to now is      315.9 secs

     total energy              =     -82.60200432 Ry
     estimated scf accuracy    <       0.00252331 Ry

     iteration #  7     ecut=    60.00 Ry     beta= 0.70
     Davidson diagonalization with overlap
     ethr =  1.58E-05,  avg # of iterations =  5.0

     negative rho (up, down):  7.887E-02 0.000E+00

     total cpu time spent up to now is      356.6 secs

     total energy              =     -82.60216713 Ry
     estimated scf accuracy    <       0.00095050 Ry

     iteration #  8     ecut=    60.00 Ry     beta= 0.70
     Davidson diagonalization with overlap
     ethr =  5.94E-06,  avg # of iterations =  4.0

     negative rho (up, down):  7.039E-02 0.000E+00

     total cpu time spent up to now is      396.6 secs

     total energy              =     -82.60172984 Ry
     estimated scf accuracy    <       0.00046737 Ry

     iteration #  9     ecut=    60.00 Ry     beta= 0.70
     Davidson diagonalization with overlap
     ethr =  2.92E-06,  avg # of iterations =  7.0

     negative rho (up, down):  5.791E-02 0.000E+00

     total cpu time spent up to now is      437.7 secs

     total energy              =     -82.60146357 Ry
     estimated scf accuracy    <       0.00018669 Ry

     iteration # 10     ecut=    60.00 Ry     beta= 0.70
     Davidson diagonalization with overlap
     ethr =  1.17E-06,  avg # of iterations =  5.0

     negative rho (up, down):  3.950E-02 0.000E+00

     total cpu time spent up to now is      477.3 secs

     total energy              =     -82.60121196 Ry
     estimated scf accuracy    <       0.00009037 Ry

     iteration # 11     ecut=    60.00 Ry     beta= 0.70
     Davidson diagonalization with overlap
     ethr =  5.65E-07,  avg # of iterations =  6.0

     negative rho (up, down):  3.289E-02 0.000E+00

     total cpu time spent up to now is      517.0 secs

     total energy              =     -82.60120642 Ry
     estimated scf accuracy    <       0.00003514 Ry

     iteration # 12     ecut=    60.00 Ry     beta= 0.70
     Davidson diagonalization with overlap
     ethr =  2.20E-07,  avg # of iterations =  5.0

     negative rho (up, down):  2.743E-02 0.000E+00

     total cpu time spent up to now is      556.2 secs

     total energy              =     -82.60123672 Ry
     estimated scf accuracy    <       0.00001691 Ry

     iteration # 13     ecut=    60.00 Ry     beta= 0.70
     Davidson diagonalization with overlap
     ethr =  1.06E-07,  avg # of iterations =  5.0

     negative rho (up, down):  2.443E-02 0.000E+00

     total cpu time spent up to now is      595.3 secs

     total energy              =     -82.60124121 Ry
     estimated scf accuracy    <       0.00000616 Ry

     iteration # 14     ecut=    60.00 Ry     beta= 0.70
     Davidson diagonalization with overlap
     ethr =  3.85E-08,  avg # of iterations =  2.0

     negative rho (up, down):  2.330E-02 0.000E+00

     total cpu time spent up to now is      633.5 secs

     total energy              =     -82.60124595 Ry
     estimated scf accuracy    <       0.00000230 Ry

     iteration # 15     ecut=    60.00 Ry     beta= 0.70
     Davidson diagonalization with overlap
     ethr =  1.44E-08,  avg # of iterations =  1.0

     negative rho (up, down):  2.232E-02 0.000E+00

     total cpu time spent up to now is      661.9 secs

     End of self-consistent calculation

          k = 0.0000 0.0000 0.0000 (285662 PWs)   bands (ev):

   -27.2129 -18.6325 -15.2400 -12.7674 -11.2544 -10.2382  -7.8746  -6.1481
    -3.8519  -2.5271  -0.8148  -0.5124

     the Fermi energy is    -5.4337 ev

!    total energy              =     -82.60124770 Ry

     total all-electron energy =      -306.976328 Ry
     estimated scf accuracy    <       0.00000061 Ry
     smearing contrib. (-TS)   =      -0.00000000 Ry
     internal energy E=F+TS    =     -82.60124770 Ry

     The total energy is F=E-TS. E is the sum of the following terms:
     one-electron contribution =    -177.64205718 Ry
     hartree contribution      =      91.36322560 Ry
     xc contribution           =     -18.54020096 Ry
     ewald contribution        =      45.47112305 Ry
     one-center paw contrib.   =     -23.25333820 Ry

     convergence has been achieved in  15 iterations

     negative rho (up, down):  2.232E-02 0.000E+00

     Forces acting on atoms (cartesian axes, Ry/au):

     atom    1 type  1   force =    -0.00082798    0.00034361    0.00121098
     atom    2 type  1   force =    -0.00186033    0.00185509    0.00289822
     atom    3 type  2   force =     0.00097509    0.00018363   -0.00132841
     atom    4 type  3   force =     0.00025849    0.00020312   -0.00054280
     atom    5 type  3   force =     0.00145473   -0.00258544   -0.00223799

     Total force =     0.005876     Total SCF correction =     0.000335

     negative rho (up, down):  2.232E-02 0.000E+00

     negative rho (up, down):  2.232E-02 0.000E+00

     negative rho (up, down):  2.232E-02 0.000E+00

     negative rho (up, down):  2.232E-02 0.000E+00

     negative rho (up, down):  2.232E-02 0.000E+00

     negative rho (up, down):  2.232E-02 0.000E+00

     negative rho (up, down):  2.232E-02 0.000E+00

     negative rho (up, down):  2.232E-02 0.000E+00

     negative rho (up, down):  2.232E-02 0.000E+00

     negative rho (up, down):  2.232E-02 0.000E+00

     negative rho (up, down):  2.232E-02 0.000E+00

     negative rho (up, down):  2.232E-02 0.000E+00

     negative rho (up, down):  2.232E-02 0.000E+00

     negative rho (up, down):  2.232E-02 0.000E+00

     negative rho (up, down):  2.232E-02 0.000E+00

     negative rho (up, down):  2.232E-02 0.000E+00

     negative rho (up, down):  2.232E-02 0.000E+00

     negative rho (up, down):  2.232E-02 0.000E+00

     negative rho (up, down):  2.232E-02 0.000E+00

     negative rho (up, down):  2.232E-02 0.000E+00

     negative rho (up, down):  2.232E-02 0.000E+00

     negative rho (up, down):  2.232E-02 0.000E+00

     negative rho (up, down):  2.232E-02 0.000E+00

     negative rho (up, down):  2.232E-02 0.000E+00

     negative rho (up, down):  2.232E-02 0.000E+00

     negative rho (up, down):  2.232E-02 0.000E+00

     negative rho (up, down):  2.232E-02 0.000E+00

     negative rho (up, down):  2.232E-02 0.000E+00

     negative rho (up, down):  2.232E-02 0.000E+00

     negative rho (up, down):  2.232E-02 0.000E+00

     negative rho (up, down):  2.232E-02 0.000E+00

     negative rho (up, down):  2.232E-02 0.000E+00

     negative rho (up, down):  2.232E-02 0.000E+00

     negative rho (up, down):  2.232E-02 0.000E+00
 BEEFens 2000 ensemble energies
             -0.139141592931822E+01
             -0.530133943969897E-01
             -0.286913974488538E+00
              0.953032973065062E+00
             -0.450653914762112E+00
             -0.339857183283662E+00
             -0.102242521381285E+01
             -0.210150825583237E+01
             -0.756472743832227E+00
             -0.812168230731896E+00
             -0.780908157956246E+00
              0.127959854039896E+00
              0.743647294349281E-01
             -0.978322035355088E-01
              0.868474505746284E-01
              0.101172607672039E+01
             -0.432312055137458E+00
             -0.222908832178367E+00
              0.507346515302920E+00
             -0.238878309466412E+01
              0.122281206415252E+01
             -0.410333728944085E+00
             -0.134151916697965E+00
             -0.194064824476130E+00
              0.499539223885073E-01
             -0.121124470596282E+00
              0.190188991399384E+01
             -0.483786989728491E+00
             -0.179390505144781E+00
             -0.121372403629874E+01
              0.149219654345935E+01
             -0.103083636170696E+00
             -0.900458138436287E+00
              0.400383789843539E+00
             -0.623543886013582E-01
              0.615862278036833E+00
              0.393628881624535E-01
             -0.593679735636954E-03
              0.797363799775758E+00
             -0.216314981855393E+01
              0.117868889977420E+01
              0.255143493337019E+00
             -0.258455101035532E+00
             -0.653292468573547E+00
              0.255510882921722E+00
             -0.380751751094490E+00
              0.109123389091045E+01
              0.764511787619064E+00
             -0.413494277598465E+00
             -0.695103764278077E+00
             -0.655806291247254E+00
             -0.798058317627867E+00
              0.463177792155368E+00
             -0.113808182802407E+01
              0.349134893568873E+00
              0.132109805875954E+01
              0.162019516067957E+01
              0.689418751230118E+00
              0.366960269411114E+00
              0.691017797161326E+00
              0.195731898812644E+01
              0.371154219737690E+00
             -0.119054442618797E+01
             -0.207914158040609E+00
             -0.633159019836857E+00
              0.134908197274483E+01
             -0.157029231310897E+01
             -0.126915113198497E+01
             -0.714668447002017E+00
             -0.402542368979294E+00
             -0.855941837698293E+00
              0.595518543646689E+00
              0.287004850060899E+00
              0.346511777533350E+00
             -0.820757085726024E+00
             -0.767388434677989E+00
             -0.126440911951837E+01
              0.687140110721932E+00
             -0.738831646719384E+00
              0.671496463906665E+00
             -0.167893027807341E+00
             -0.612866865941541E+00
             -0.110384529140694E+01
             -0.326418384280084E+00
             -0.365943760520336E+00
             -0.331386802395234E+00
              0.831037366644884E+00
              0.166991950526406E+01
             -0.989323456688896E+00
             -0.172617569936512E+01
             -0.396458879358998E+00
              0.235878896350017E+01
             -0.119416504290495E+01
              0.662027862323021E+00
             -0.253967121709904E+00
             -0.128736027214374E+01
              0.599120971533469E+00
              0.664417977253160E+00
             -0.313694821332466E+00
              0.614715338757968E+00
             -0.541175824874237E+00
             -0.131613220860134E+01
              0.216250378569280E+01
              0.988146062738103E+00
              0.462588664826306E+00
              0.280946265263530E+00
              0.499953116691281E+00
              0.175744487142781E+01
             -0.570902231110370E+00
              0.523208945753746E-01
             -0.299140525263079E+01
              0.388872295739707E+00
             -0.143039457571428E+01
              0.266144282193708E+00
              0.465314414676188E+00
             -0.798146603768945E+00
             -0.108099380543267E+01
              0.622666496324715E-01
             -0.660638566037315E+00
              0.954455558935075E+00
             -0.974440091351091E+00
             -0.179230162919270E+00
             -0.830868163371403E+00
             -0.798750185402008E-01
              0.970950310275147E-01
              0.480813003438560E+00
             -0.105947537352264E-01
             -0.137623348965766E+00
              0.143121022387074E+01
              0.198330790583613E+01
              0.106393365578528E+01
              0.141643038714941E+01
             -0.291818236900042E+00
              0.184076248987827E+00
              0.111560197089929E+01
              0.100622818422769E+00
             -0.164095747032471E+01
             -0.939106639898392E+00
             -0.104589190573552E+01
             -0.634077618722874E+00
              0.542389218486376E+00
             -0.263020569194562E+01
             -0.257735699458076E+00
              0.100381269557801E+01
             -0.871796818797944E+00
             -0.624556488265995E+00
              0.124209711370702E+01
              0.106284761477723E+01
             -0.605388575152244E+00
              0.697418978601497E+00
             -0.531149352061846E+00
              0.816106216154234E+00
              0.160526619768811E+00
              0.234027773575528E+00
             -0.176744084687414E+01
             -0.103947474025275E+01
             -0.184883169004578E+00
             -0.596086024043403E-01
             -0.920346815154389E+00
              0.239165417979056E+01
             -0.250151250582670E+00
             -0.574975301280254E+00
              0.848049979311138E+00
             -0.966647790347638E+00
             -0.809437428508146E+00
              0.704981310619095E+00
              0.259428471641344E+00
              0.227316631465133E+00
              0.342576835297660E+00
             -0.228966570951297E+00
              0.214570988061841E+00
              0.126443106676765E+01
             -0.586744044609040E+00
              0.479127550573847E+00
              0.191142663884503E+01
              0.673566071225236E+00
             -0.927064350321167E-01
             -0.440183624984639E+00
              0.335123253930718E+01
             -0.533043477792894E+00
              0.841295515462992E+00
              0.660107626241578E+00
              0.606016543986073E+00
              0.201025473500186E+01
              0.993060484818672E+00
             -0.121361182543133E+00
              0.538844485602162E+00
              0.111673878110066E+01
              0.834078983113051E+00
             -0.131969254142061E+01
              0.203553870880594E+01
             -0.184644635164218E+01
             -0.236585453251779E+00
              0.121533552010036E+01
              0.360449728374234E+00
              0.124142599953899E+00
              0.596306113445946E+00
              0.334198455195044E+00
              0.700950567726576E+00
             -0.135190398932905E+01
              0.791021675596610E-01
             -0.499299198889121E+00
             -0.136327747109137E+00
             -0.653672346434444E-01
             -0.272471403329769E+00
             -0.139332006836986E+00
              0.178921078702726E+01
             -0.110878288712637E+00
             -0.622778589521317E+00
             -0.271862339043194E-01
              0.306020723246534E+00
             -0.138623438214279E+01
             -0.118775521815884E+01
             -0.733447155440393E+00
             -0.135234207237602E+01
             -0.410468141968494E+00
             -0.866220200414004E+00
              0.398705366658798E+00
              0.445287360487190E-01
             -0.278423931065221E+00
             -0.173253423501687E+00
              0.105958822055118E+00
             -0.299552307195903E+00
              0.139671712829040E+01
             -0.188594777772329E+01
             -0.287949069762222E+00
             -0.297976379276758E+00
              0.334301727511539E+00
              0.456946923057628E+00
             -0.110674251517431E+01
             -0.263704144563876E+00
              0.960662146199582E+00
             -0.422635516964123E+00
              0.282540900175989E+00
              0.731210735682106E+00
             -0.127372100148335E-01
              0.248604990458262E+01
             -0.245274833168045E+00
             -0.744879285825519E+00
              0.100687650970439E-01
             -0.599299011720355E+00
              0.117849591698590E+01
             -0.103594037067055E+01
              0.294727964605467E+00
              0.108538383355250E+01
             -0.280250014700885E+00
              0.253729142167544E+01
              0.275142814947784E+01
             -0.151926487668077E+01
              0.123296214627893E+01
              0.504919295660669E+00
             -0.121212195131735E+01
              0.384460421582050E+00
              0.911904167631334E+00
              0.100617951749858E+01
              0.106475940827954E+00
              0.376014630731976E+00
              0.160721607972965E+01
             -0.496673839782332E+00
              0.197905341139078E+00
              0.146688485453102E+01
             -0.787413060858097E+00
             -0.515792813838097E+00
              0.127233314469773E+01
              0.661441467133077E+00
              0.166575155546783E+01
              0.731376567012022E+00
              0.285435746726550E+00
              0.539286785081690E+00
              0.917244520897256E+00
             -0.112245709423703E+01
              0.158939697935096E+00
              0.582539420714470E+00
              0.233070564101077E+00
              0.520617005605048E+00
             -0.133364886149100E+01
              0.695844960756142E+00
             -0.936180742218928E+00
             -0.661266957073749E+00
              0.409575214941405E+00
             -0.190468161277172E+00
              0.128590616708472E+01
             -0.311622010164161E+00
              0.628993685445137E+00
              0.645935953981020E+00
              0.166172485136884E+01
              0.112735132008746E+01
              0.110476017265101E+01
             -0.692198605194507E-01
             -0.242066569764079E+00
             -0.633909785611213E+00
              0.176493869223122E+01
              0.178517273807745E+01
              0.847498501768195E+00
             -0.611786566738976E+00
              0.106629415540576E+01
             -0.201946508325879E-02
              0.374132012523695E+00
              0.149779480936846E+01
             -0.549091664177377E-01
             -0.218386693928096E+00
             -0.453459760206998E+00
             -0.131029070973031E+01
              0.207730975040609E+01
              0.109595234302962E+01
             -0.138887673009948E+01
             -0.467642234471106E+00
              0.550000059720912E+00
             -0.229933218347278E+00
              0.142204087243992E+01
              0.330900414198302E+00
              0.175889284624771E+01
              0.653121901789450E+00
             -0.514023270162090E+00
              0.399047877442748E+00
             -0.152567189150113E+00
             -0.557979796497595E+00
              0.371987854536058E+00
              0.349593854318890E+00
              0.193583173347973E+01
              0.165115654674113E+01
              0.122861909016312E+01
              0.145539125225729E+01
              0.139192837300910E+00
             -0.548041349253459E+00
              0.288105248443586E+00
             -0.722065449466792E+00
             -0.121570574490049E+01
             -0.122764148959774E+01
             -0.691669083819900E+00
             -0.233753132585294E+01
             -0.797170330261187E+00
             -0.187077196360779E+01
              0.443466089140578E+00
             -0.973384239978243E+00
              0.109478128703065E+01
             -0.212592785810980E+01
             -0.637807540119167E+00
              0.850808047372102E+00
              0.473750121978539E+00
             -0.195282264691102E+01
              0.115960612094803E+01
             -0.608439610594968E+00
              0.119870320386238E+01
             -0.605509235976311E+00
             -0.170018153223581E+01
              0.390212835150481E+00
             -0.143058894780164E+01
             -0.855868820467505E-01
             -0.263982827433664E-01
              0.906072004844532E+00
              0.271602447250405E+01
             -0.933347038142802E+00
             -0.813762174119065E+00
             -0.138359898739356E+00
             -0.177667580717976E+00
             -0.173049863265909E+01
             -0.122606324049329E+01
              0.107802660500727E+01
             -0.400988049392279E+00
              0.474659721063931E+00
             -0.107052905378049E+01
             -0.343683060121474E+00
             -0.901228658837860E+00
              0.104376986392173E+01
              0.286304713315502E+00
             -0.524908299476818E+00
             -0.383264690336633E+00
              0.284841056367179E+00
             -0.172011319120274E+00
              0.876307989052344E+00
             -0.577466319048346E+00
              0.227994723329132E+00
              0.721947221941081E+00
              0.284094004543554E+00
             -0.503226966172337E+00
              0.335172401194766E+01
              0.127353108812078E+01
              0.211853070905168E+00
              0.143301507057124E+00
             -0.130555351987464E+01
              0.712402936009697E+00
             -0.168950656708562E+01
             -0.735044914400600E+00
             -0.128996670455219E+01
             -0.386954885492578E+00
              0.126443366227265E+01
             -0.125154521985259E+01
              0.564891417299608E+00
             -0.812463995173260E-01
              0.354662985679974E-01
             -0.683922404910071E+00
             -0.894070126243852E+00
             -0.123459471228077E+00
             -0.734142626088115E+00
             -0.491886761533971E+00
             -0.858976036795966E+00
             -0.118955404713477E+00
             -0.693007024988640E+00
             -0.105560551718784E+01
              0.471793804196109E+00
             -0.275213732101171E+00
              0.510146931604277E+00
              0.185963834828194E+00
             -0.162883161304830E+01
             -0.110417570759954E+01
             -0.106464067416711E+01
              0.703167143222526E+00
             -0.134475244525623E+00
             -0.134547152112969E+01
              0.121674088882711E+01
             -0.915839386171166E+00
              0.126222554376277E+01
             -0.665903504235276E+00
             -0.106577028124438E+01
              0.550437658414431E+00
             -0.157532147717928E+01
             -0.690509319480241E+00
              0.127266759458330E+01
              0.432012762088807E+00
             -0.924815881492158E+00
              0.120027165314278E+01
             -0.347573221681925E+00
             -0.797292706958192E+00
             -0.654354096746048E+00
             -0.112759749108273E+01
              0.542210025790847E+00
             -0.187570919841102E+01
             -0.166323616529934E+01
             -0.162565950414056E+00
             -0.621964026925487E+00
             -0.130207600005782E+01
              0.165611785949513E+01
              0.297552226586661E+01
             -0.480972054153205E+00
             -0.747746591016814E-01
             -0.131123299198675E+01
              0.142911814556279E+01
              0.471766315555857E+00
             -0.438581280493480E+00
             -0.783434840287687E+00
              0.318451287923796E+00
             -0.129918990973991E+01
             -0.242801495056529E+00
             -0.187787116679627E+01
              0.733649782777771E+00
              0.251572628282045E+00
             -0.120385453966506E+00
             -0.238496513138728E+00
             -0.895594461554506E+00
             -0.274506864717893E+00
              0.294314352636048E+01
             -0.339642321424538E+00
             -0.103607966454979E+01
             -0.149348145998944E+01
              0.296564663908609E+00
             -0.820365809682847E+00
              0.208015066366928E+00
              0.720357835150492E+00
              0.992385288435811E-01
              0.769136336515734E+00
              0.384071252098968E+00
              0.127038762422102E+01
              0.547059745562891E+00
             -0.780319709902678E+00
              0.115245487079952E+01
              0.746081274066928E+00
              0.274733707108521E+00
              0.803290647006622E+00
             -0.666343315218506E+00
              0.155348021874176E+01
              0.554321004700849E+00
             -0.750535416552579E+00
             -0.117147047163957E+00
             -0.351553707745707E+00
              0.345961257703497E+00
             -0.564688118521766E+00
             -0.243003563262103E+00
             -0.280147925778955E+00
              0.176016363895378E+01
              0.126070194964473E+01
             -0.141619230501838E+01
             -0.166354313922142E+00
             -0.109700224466476E+01
             -0.299344993474234E+00
             -0.455915854790662E+00
              0.240540444814293E+00
             -0.800531686587024E-01
             -0.611294276158717E+00
              0.360729095747878E+00
             -0.201976572923365E+00
             -0.165158203865037E+00
              0.189316437292811E+01
              0.332833631532920E+00
             -0.178957571522307E+01
             -0.833035699882792E+00
              0.206102536831116E+01
              0.510713203995209E+00
             -0.180179192491433E+00
              0.237803368122019E+01
             -0.381408171363501E+00
             -0.168616397344307E+00
             -0.247413321007762E+00
              0.340860797946444E+00
              0.704774180003677E+00
              0.582457943115227E-01
              0.616480427363641E+00
             -0.249056836067139E+00
             -0.843589767300454E+00
             -0.843805506625437E+00
             -0.105253430722933E+01
              0.885670897481019E+00
              0.320888681112876E+00
              0.817535539537839E+00
              0.343472893669290E+00
              0.195075807184645E+01
              0.438533272436950E+00
             -0.166473398636697E+01
             -0.713607966510119E+00
              0.809161447203688E-01
             -0.611369860104641E+00
              0.137837543539265E+01
             -0.347247490111815E+00
              0.380520284005535E+00
              0.119423443294871E+01
             -0.174991689870869E+01
              0.320901099586775E+01
              0.419453652977751E+00
              0.521354007475191E+00
              0.817298148670437E+00
              0.860515206452703E-01
             -0.529585140912934E-01
              0.714815306747657E+00
             -0.749822707035355E+00
              0.186772085382460E+01
              0.162526012773072E+01
             -0.839865368273204E+00
              0.368802020800686E+00
              0.156890645964227E+01
             -0.474981254805427E+00
              0.434423508524612E+00
              0.736756308618203E+00
              0.911260820508842E+00
             -0.161547548310698E+01
             -0.135937547864991E+00
             -0.599918666320927E+00
             -0.135184943416069E+00
             -0.140881510796191E+00
              0.124389202390320E+00
             -0.297310280786961E+00
             -0.643459780879311E+00
              0.335574748750458E+00
              0.142282881346450E+00
              0.115406486741523E+01
             -0.995617555867214E+00
              0.966351345401687E+00
              0.108617831614728E+01
             -0.227702297266993E+00
              0.165087129167229E+01
             -0.146022287845232E+01
             -0.224414227523773E+01
             -0.161737605701468E+00
             -0.148179886524844E+00
              0.199305640774305E-02
              0.167739821061242E+01
             -0.390598869249543E-01
              0.914182992739359E+00
              0.127628974637393E+01
              0.848372467831778E+00
             -0.128073520977390E+00
              0.131125104440822E+01
             -0.359775757320712E+00
             -0.838278595052541E+00
             -0.805515411722435E+00
              0.213430611185613E+00
              0.788446219358868E+00
             -0.679207150200267E-01
              0.754128616865847E+00
              0.516642546609347E-02
              0.122506692309969E+01
              0.376400004571748E+00
              0.166084761486588E+00
              0.129739315163260E-01
              0.648135296566609E+00
              0.885874180909218E+00
              0.339052945166211E+00
             -0.748261176433949E-01
             -0.117517790228134E+01
              0.649450767928312E+00
              0.451322360837599E+00
              0.739325025858099E+00
              0.659974805101582E+00
              0.784995278179003E+00
             -0.200024412026838E+00
              0.717761658675916E+00
             -0.623622466486054E+00
             -0.405874434259559E-01
             -0.115460372509285E+01
             -0.759637094077705E+00
              0.940826638175370E+00
             -0.191840350493968E+01
              0.536617343255649E+00
              0.307977396596950E+00
              0.186035998778591E+01
             -0.322101174235791E+00
              0.701162255637580E+00
             -0.249276479064370E+00
             -0.106900502904506E+01
             -0.145832216478348E+01
             -0.306685389540160E+00
             -0.196745897979432E+01
              0.199589139992064E+00
             -0.456257145734716E+00
              0.701309270558302E+00
              0.503642181438744E+00
             -0.611277847893778E+00
             -0.636749618697953E+00
              0.929858463387552E+00
             -0.122882913583291E+01
             -0.285312967905039E+00
             -0.357686302050565E+00
              0.574028148927680E+00
              0.756852103320469E-01
              0.859962557122733E-01
             -0.341562595704150E+00
              0.116732862413393E+01
             -0.125272173193781E+01
              0.161224234224695E+00
              0.129864321422830E+01
             -0.783578236339282E+00
              0.734486673935075E-01
              0.231613448838583E-01
             -0.143286529972269E+01
             -0.864509004851270E+00
             -0.529532189116630E-01
              0.663219179874159E+00
              0.739001790311434E+00
              0.983328229097022E-01
             -0.249044416952657E+00
              0.389244002075909E+00
             -0.895329223385237E+00
             -0.949916895935461E-01
             -0.114145974936944E+01
             -0.564781793996067E+00
              0.108133937615990E+01
             -0.661702456165465E+00
              0.150185576484781E+01
             -0.489864407554871E+00
              0.740871536301459E+00
              0.550857473340713E+00
             -0.129681387156510E+01
             -0.570813750143696E+00
              0.203108622263915E+00
             -0.886504103855599E+00
             -0.897540558011973E+00
             -0.191679401116689E+01
             -0.121316073093151E+01
             -0.107864924416005E+01
             -0.984470564020776E+00
              0.143282981662942E-01
              0.511824017446154E+00
              0.213237998733802E+00
              0.577985003063832E+00
             -0.127263709991578E+01
              0.277680832170564E+00
              0.584853094716951E+00
             -0.149653235317657E+01
             -0.125255303296024E+01
             -0.836638947585309E+00
             -0.690358411856227E+00
              0.327366835704469E+00
             -0.610554253102613E-01
             -0.940592532521727E+00
              0.634895185106389E+00
             -0.489781325708513E+00
              0.113536414885278E+01
             -0.190928089173917E+01
              0.136131697799258E+01
             -0.219259187524264E+00
             -0.945798586327513E+00
             -0.611548192505533E+00
             -0.188480279653866E-01
              0.105979881210764E+01
             -0.152166541286396E+01
             -0.285120454405371E+00
             -0.358983404770379E+00
              0.909710098952468E+00
              0.173590083834641E+01
             -0.216040716361135E+01
              0.200078148266523E+01
              0.866067465838650E+00
             -0.165858709545007E+01
             -0.698569936218180E+00
              0.170797551540551E+01
              0.123770207357300E+01
             -0.441280604726360E+00
             -0.157092271231834E+00
              0.387866908076190E+00
              0.167416421007315E+01
             -0.128192490598480E+01
              0.295168664750697E+00
             -0.160297528306051E+00
              0.595517449449751E+00
             -0.153158167145962E+01
             -0.683006332019329E-01
             -0.603900189400486E+00
              0.105423440733643E+01
              0.844215691649926E+00
             -0.191805856256681E+01
             -0.103056436677111E+01
             -0.458204865234807E+00
             -0.931118823599492E+00
             -0.281332240574279E+00
             -0.418168269177562E+00
              0.989093876776037E+00
              0.955597911213878E+00
             -0.576343454348454E-01
             -0.949469536293911E+00
             -0.184969149296024E+01
              0.108971081597831E+01
             -0.101348481581419E+01
             -0.796009957078227E+00
              0.159666912110779E+00
             -0.791289817857230E+00
             -0.882533747932786E+00
             -0.664426954800452E+00
             -0.108504650434957E+01
             -0.527965917841891E+00
             -0.108858683427836E+01
              0.121009682840573E+01
              0.130443769267232E+01
             -0.218570132675408E+00
             -0.462803215137802E+00
              0.621435654391469E-01
              0.918361310342206E+00
             -0.186245298313051E+01
             -0.515802379852092E+00
              0.109158071821988E+01
              0.152129164543475E+01
             -0.243359433986086E+00
              0.242490034386238E+00
              0.113736890367183E+01
              0.327728854061379E+00
              0.887463320411630E-02
             -0.844861159352277E+00
              0.323081177982655E+00
             -0.715815157254934E+00
             -0.203763020575130E+00
             -0.455044141369969E+00
             -0.320847883198001E+00
              0.500425177033902E+00
              0.171942380026637E+01
             -0.140021168369707E+00
              0.417670297157997E-01
             -0.198753511070932E+01
             -0.392533715031957E+00
             -0.786835077460280E+00
              0.126854085639394E-01
             -0.100287282594701E+01
              0.192849598316966E+01
              0.188765665681973E+01
              0.401708587876269E+00
             -0.479026604364130E+00
              0.381093514413129E+00
              0.462050326320383E+00
             -0.100086082647373E+01
             -0.179296169731970E+00
              0.401428270255659E+00
              0.276358917788074E+00
              0.111268591052908E+01
              0.873849142610516E+00
             -0.468862422041870E+00
              0.500384652726982E+00
             -0.210466632122314E+01
             -0.591486443673799E-01
              0.195183514983422E+01
              0.389886761844666E+00
             -0.429287743187707E-01
              0.590532317158821E+00
             -0.511001835309999E+00
              0.192347488637120E+01
             -0.417202955706377E+00
              0.170062619213593E+01
              0.825155249915003E+00
             -0.954751423604888E+00
              0.717671701024097E+00
             -0.613257420320053E+00
             -0.146991261793464E+01
             -0.173427640163790E+00
             -0.118412304125688E+01
             -0.113765096396632E+01
             -0.374362244637996E-01
              0.791944537649041E+00
             -0.276664901575211E+00
             -0.684812733753191E+00
              0.158783795728922E+00
             -0.143925380673806E+01
             -0.888936727697407E-01
             -0.188425679495840E+01
              0.117268897571229E+01
             -0.966387498529508E-01
             -0.105984923505790E+01
             -0.377461397033928E+00
              0.373167623308771E+00
             -0.801248549762867E+00
             -0.969226892903813E+00
              0.195187908958590E+01
             -0.594995731827420E+00
             -0.856337210187114E+00
              0.668713717918158E+00
             -0.436778458121641E+00
              0.120917556523841E+01
             -0.278348462367255E-01
              0.819974758627087E-01
              0.234906161506526E+01
             -0.223987642323761E+00
             -0.833345220799911E+00
             -0.100923182659146E+01
             -0.113739251060902E+01
             -0.803877490086888E+00
              0.643937455543067E+00
              0.636581951548516E+00
              0.607431092979175E+00
              0.162654163858198E+01
              0.102908320320479E+00
              0.478773378085155E+00
             -0.128893119922193E+01
              0.364585582545995E-01
             -0.374961298601663E+00
             -0.587681425497145E+00
             -0.109723213742342E+00
              0.721873811373033E+00
              0.824279025362754E+00
             -0.444880643543883E-01
              0.261189215008590E+00
              0.609138456382022E+00
              0.774927460754517E+00
             -0.501212801612909E+00
             -0.216396486438088E+00
              0.211424799518123E-01
             -0.568294579276948E+00
             -0.963737396772739E-01
             -0.821072967685544E+00
              0.168768074924763E+01
              0.133086507584070E+01
             -0.363665415070937E+00
              0.336868339269921E+00
             -0.111491078846385E+00
             -0.649096580694696E+00
              0.800894856295928E+00
             -0.204028238267325E+00
              0.789026389638249E+00
             -0.105482610404458E+01
              0.384619762205346E+00
             -0.170852594555136E+00
             -0.117889682452246E+01
             -0.522869064693786E+00
              0.522331641401019E+00
             -0.210898233079232E+01
              0.836301961371966E+00
              0.102438463991480E+01
             -0.207851516468385E+00
             -0.150831854882082E+00
             -0.730547722491055E-01
              0.582580468438934E+00
             -0.724257034894679E+00
              0.678563337133732E+00
              0.701336836021832E+00
             -0.202195662786702E+01
             -0.785177634362301E+00
              0.518046384798710E+00
             -0.276480144135707E+00
              0.102511676404293E+01
             -0.133984166875466E+01
             -0.175158033380228E+00
             -0.866498950343930E+00
             -0.280748351706115E+01
              0.171797826298942E+01
             -0.131516242286134E+01
             -0.143745960959903E+01
              0.137092203020241E+00
              0.280372015485440E+01
              0.139954564552656E+00
             -0.676829725445320E+00
             -0.221513797386290E-01
             -0.993592250079618E-01
             -0.189716166765216E+01
             -0.122233171912907E+01
              0.185318623490363E+01
             -0.236351603251409E+00
             -0.796963057730617E+00
              0.108097852660779E+01
             -0.717105324835211E+00
              0.742314995063165E+00
              0.105799663530747E+01
             -0.118766377718824E+01
             -0.610075445034806E+00
             -0.703766596294982E+00
             -0.357111518391259E+00
             -0.434057452912241E+00
             -0.365321104582714E+00
              0.417373393190660E+00
             -0.759645896902755E+00
              0.607785746737866E+00
              0.121361846603553E+01
             -0.184854194284720E+00
             -0.431665636047160E+00
              0.314902601553297E+00
              0.118690831865675E+01
              0.118612025500990E+01
              0.184993780742557E+00
             -0.204529586802370E+00
             -0.216373386524443E+00
             -0.115852857691362E+01
              0.871500148712741E+00
             -0.550816614855884E+00
              0.474826431597327E+00
             -0.288960677222246E+00
              0.584192952713245E+00
              0.373647810726549E+00
             -0.178165332964241E+01
             -0.560559002433330E+00
             -0.170364141179261E+01
             -0.857166743768538E+00
              0.114106167336098E+00
             -0.418723438880451E+00
              0.747669259148333E+00
             -0.612385491607542E+00
              0.614663593602731E-01
              0.163965265969640E+00
              0.156171376613232E+01
              0.802410718306755E+00
             -0.686556231598979E+00
             -0.246668638424121E-01
              0.317496282377931E+00
              0.804306962151549E+00
             -0.776523905674775E-02
              0.121128529696909E+01
              0.613123014553728E+00
              0.196063160620690E+01
              0.866251409102845E-01
              0.137251639094483E+01
             -0.594167348926802E+00
             -0.858815577495587E+00
              0.753050768763988E-01
              0.224719588502222E+00
              0.524492068688031E+00
             -0.381747619054911E+00
             -0.253900689425459E+00
              0.494604676668138E+00
             -0.101489202938268E+01
             -0.127128766230360E+01
              0.172070005201069E+01
             -0.138347496404077E+00
             -0.828709356664820E+00
             -0.108163860613615E+00
             -0.309207022078290E+00
              0.909547093961287E+00
              0.785613876465527E+00
             -0.430157455562387E+00
             -0.203877655958027E-01
             -0.572099406200018E+00
             -0.763253895241856E+00
             -0.550138922747319E+00
             -0.212887911445832E+01
             -0.581564360083142E-02
             -0.142805951917184E+01
             -0.127459949847856E+01
             -0.839407272636238E+00
              0.464580188064248E+00
             -0.845674639365835E+00
              0.508836877032450E+00
             -0.138255292932287E+01
             -0.942251551416362E-03
             -0.925000535384324E+00
              0.152296629276718E+00
              0.167136073091049E+00
              0.731612001624749E+00
             -0.435410153166000E+00
             -0.410641403825281E+00
              0.671672383960283E+00
              0.129804945501664E+01
              0.699795005392946E+00
              0.229505701769195E+00
             -0.159988030384246E+01
             -0.324309538492369E+00
             -0.606934807912285E+00
             -0.134680216794690E+01
              0.936059833691846E+00
             -0.742740763983308E+00
             -0.159008509598988E+00
             -0.576726429351658E+00
             -0.217290407067963E+01
              0.121587669760961E+01
             -0.388846555363907E+00
              0.847703824061217E+00
             -0.161601438673578E+01
              0.141356306914493E+01
              0.126523601197501E+00
             -0.580658819943085E+00
              0.200813165134260E+00
             -0.457638502322366E+00
             -0.139334528016090E+01
              0.381193805661208E+00
              0.795711248329346E+00
             -0.140908600920788E-01
             -0.749996994804675E+00
             -0.322694171376542E+00
              0.435696546995860E+00
              0.782958605109485E+00
              0.135537973459606E+01
              0.497107580353864E+00
             -0.503607017257385E+00
              0.212137076405589E+01
              0.496018601326335E+00
              0.990755968017532E+00
             -0.346058867799089E+00
              0.652620853410793E+00
              0.491137673032358E+00
             -0.133702118520210E+01
             -0.484272923596628E+00
             -0.865689193399699E+00
             -0.858396830354975E+00
             -0.241401086379694E+00
             -0.214997687808856E+00
             -0.961438099486891E+00
             -0.242790180256030E+01
             -0.591888864545051E+00
              0.316859325534049E+00
              0.129988199797291E+00
              0.306563922654087E+00
              0.913633204665800E+00
              0.269873122146921E+00
              0.687251130560057E+00
             -0.953844998921491E+00
              0.942449525785902E+00
             -0.891389780439551E+00
             -0.148287678951107E+01
              0.434777139848656E+00
             -0.894259632625342E+00
             -0.878425898169677E+00
             -0.346307765121951E+01
             -0.164484417003836E+00
              0.181765779853874E+01
              0.904580178650529E+00
             -0.219341848102568E+00
             -0.232585551970001E+00
              0.894469818385211E+00
              0.139501494995521E+01
             -0.845532429967886E+00
             -0.280748880527488E+00
             -0.777193743850301E+00
             -0.732640473450221E+00
             -0.658317086516774E+00
              0.263933338212520E+00
              0.153847838589499E+01
             -0.142157343580829E+01
             -0.117825500046945E+01
              0.676960316453670E-01
             -0.312624082462455E+00
             -0.384666553888310E+00
             -0.196052404964670E+01
              0.132242143431214E+01
              0.445076130279302E+00
              0.186565893660962E+00
              0.113870768706346E+01
             -0.700489142022998E+00
              0.731291665997960E+00
              0.629155612688471E+00
              0.618683438581806E-01
             -0.179150262606669E+00
              0.200114164247677E+00
             -0.334196758682293E+00
              0.112298404332810E+01
             -0.888173282853180E+00
              0.988235979914170E+00
              0.205087848778661E+00
              0.347743486813935E+00
              0.434607383814456E+00
             -0.176555513625136E+01
              0.200023938191907E+00
             -0.143734147786983E+01
             -0.105559728331088E+01
             -0.104877097122197E+01
             -0.112288598759076E+01
              0.114999763016392E-01
              0.391206762675986E+00
              0.107811159605917E+01
              0.168791806426851E+00
              0.315224496145011E+00
             -0.152035586207008E+01
             -0.614880204031896E+00
              0.698609109216576E+00
             -0.527842211021823E-01
             -0.608644355761303E-01
             -0.204725431815874E+00
              0.789711297406078E+00
             -0.197919287179865E+01
              0.291405486625640E+00
              0.477199565248830E+00
              0.862844619388994E+00
              0.818604133422604E+00
             -0.123725730470031E+01
              0.321769670872497E+00
              0.131560861493984E+00
              0.156165802436171E+00
              0.100006768794691E+00
             -0.423853664832094E+00
             -0.915868201527430E+00
              0.380785716056427E+00
              0.127200240711089E+01
             -0.439755189146958E-01
              0.288394050130492E+00
              0.264732399890392E+00
             -0.658927124688266E+00
             -0.685586901770662E+00
             -0.265065111205486E+01
             -0.840340575722109E+00
             -0.123818589342207E+01
             -0.146344750578567E+00
             -0.146389083527947E+01
              0.164704666772723E+01
             -0.721210051123837E+00
             -0.118669960557227E+01
             -0.341437458733014E+01
              0.146677217319333E+01
              0.316352033875264E+00
              0.160041280198420E+00
             -0.132584588087239E+01
              0.905779559435373E-01
             -0.343977902517161E+00
             -0.683715854284058E+00
              0.182675860799459E+00
              0.694272500245401E+00
              0.120078924203449E+00
             -0.428712521209684E+00
              0.577763544770189E-01
              0.187331013131340E-01
              0.265422672776106E+00
             -0.144239590455032E+01
              0.158092167371394E+01
             -0.905430772060725E+00
             -0.570867527127707E+00
             -0.108642735247083E+01
             -0.233205001987595E+01
              0.118767631013951E+00
             -0.121259622753493E+01
             -0.420209747844060E+00
              0.676956645471320E+00
             -0.573270918597597E+00
             -0.215412083271051E+00
             -0.276158392713224E+00
             -0.468912360737539E+00
              0.644267552445825E-01
              0.111971653539660E+01
             -0.111327984580714E+01
              0.222990183493052E+01
             -0.515337026041547E+00
              0.716335389352053E+00
             -0.357894593080567E+00
              0.271700595800658E+00
             -0.268412797539935E+00
              0.978982195650152E+00
              0.138280248331944E+01
              0.392577199298256E+00
              0.101075856682057E+01
             -0.666278992800067E+00
             -0.143399362960432E+00
             -0.531497121118676E+00
              0.137891276678688E+01
              0.118764240133815E+01
              0.873286670938608E+00
             -0.288157095061521E+00
             -0.567408947019886E+00
              0.524504956029906E+00
             -0.612750750510483E+00
             -0.315563453391709E+00
             -0.134854259535306E+00
             -0.753447629218944E+00
              0.107986702830796E+01
             -0.220067409453456E+00
              0.789609887010671E+00
              0.452377254298018E+00
              0.342465265451216E+00
             -0.746995751147586E+00
              0.576462024724840E+00
             -0.305561337990206E+00
             -0.159876109157985E+00
             -0.261980077795059E-01
             -0.106374049542289E+01
              0.169454670722020E+01
             -0.601266053112548E+00
              0.563063248219287E-02
              0.521941251788605E+00
              0.442639215433963E+00
              0.166458420701124E+01
             -0.475023524520185E+00
              0.164301602891010E+01
              0.145427217068294E+01
             -0.203897885072346E+01
              0.169375441007032E+00
             -0.406481360684392E+00
              0.245672339675388E+00
              0.970002072612370E-01
              0.444843962633254E+00
              0.139374526901799E+01
              0.212435219200784E+01
             -0.161071821866301E+01
              0.166303396000998E+01
             -0.216467204923149E+01
             -0.183449204900798E+01
             -0.307311395058686E+00
              0.271529942518365E-01
              0.168824116293893E+01
              0.725390513693613E+00
             -0.318061932568561E+00
             -0.184875378792594E+01
              0.146242536697023E+01
             -0.907800455017568E+00
              0.326471269203168E-01
             -0.976543582460863E-01
              0.282529307196971E+01
             -0.506927037718309E+00
             -0.228616283175197E+01
              0.664147856471709E+00
             -0.352773608851233E+01
              0.281252153133321E+00
             -0.834855400160309E+00
             -0.374140352124780E+00
             -0.577290121902021E+00
             -0.128921279308338E+01
              0.810175815664776E+00
             -0.778099503426501E+00
             -0.294149012019902E+00
             -0.164791500644560E+01
             -0.101072911423286E+00
             -0.116899437720073E+01
             -0.166768280803476E+01
             -0.236136509281086E+01
              0.180145148625933E+00
             -0.780160712840798E+00
              0.174181479097104E+00
             -0.276775044106147E+00
             -0.179585817011663E+01
             -0.139001654827926E+01
             -0.122652834683331E+01
             -0.124409596747347E+01
              0.113453666674752E+01
              0.155533286577291E+00
             -0.107019624223952E+01
             -0.525662617107459E+00
             -0.585390465160459E+00
              0.883829091511639E+00
             -0.689558542476917E+00
             -0.128524612191892E+00
             -0.648973862206947E+00
             -0.864091116590224E+00
             -0.889133624998088E+00
              0.889265777586044E+00
             -0.284205730033834E+00
             -0.198418774301772E+01
              0.170681590625994E+01
              0.997623140349921E+00
              0.843560711333176E-01
             -0.174288889070951E+01
             -0.163429271680691E+01
              0.134690867308946E+00
              0.223055843951041E-01
             -0.726499501584485E+00
             -0.982282464505450E+00
              0.680548879177680E+00
             -0.121579972218062E+00
              0.583382959833992E+00
              0.103679542322607E+01
              0.771278784394933E+00
              0.556563031515038E+00
              0.482285487311439E+00
             -0.484764335491394E+00
             -0.317419074426130E+00
             -0.394859952080007E+00
             -0.822835018409478E+00
             -0.104146939913481E+01
             -0.133477599490818E+01
             -0.791475733964132E+00
             -0.269739194053880E+00
             -0.164100287305140E+01
             -0.343696160740519E+00
              0.741913169396945E+00
             -0.178694269881546E+01
              0.760907634020738E+00
              0.600248248141243E+00
             -0.155869094428601E+01
             -0.122399692951102E+01
             -0.483742856421641E+00
              0.297549593337571E+00
             -0.892777805358261E+00
              0.162534797391569E+01
              0.143979706016157E+01
             -0.167237806405991E+01
              0.941803789437600E+00
              0.789934314007151E+00
              0.207284671735307E+00
              0.428684223155916E+00
             -0.920779962425317E+00
             -0.333196427448231E+00
              0.127682221707285E+00
              0.438438160570069E+00
              0.914717656263644E+00
             -0.117956199904790E+01
             -0.216391988057925E+00
              0.362380413572927E+00
              0.152217995196582E+00
             -0.729237470898638E+00
              0.396522585499097E+00
             -0.557230586136077E+00
             -0.382072487801861E+00
             -0.208141026497266E-02
             -0.134150385792373E+01
             -0.185294236223710E-03
             -0.241789628310096E+00
             -0.330952744782042E+00
              0.299318506686466E+00
             -0.116080707087247E+01
              0.125078616551562E+01
             -0.475624126442089E+00
             -0.290392119083541E+01
             -0.187354228243172E+01
              0.766733823981697E+00
             -0.884604645201831E+00
             -0.470596484297689E+00
             -0.534015160957941E+00
             -0.405448942407209E+00
             -0.224453234807938E+01
             -0.533261343949363E-01
             -0.135454093371566E+01
             -0.710951978722877E+00
              0.468697871140055E+00
              0.169936225615381E+01
              0.867357268280391E-01
              0.570840751762627E-01
              0.130503378922623E+01
             -0.121645748206116E+01
              0.633854591576693E+00
              0.147209537924339E+00
             -0.111884668543193E+01
             -0.620161614447357E+00
              0.436164870530536E+00
              0.609996410147162E-01
              0.343857889180714E+00
              0.313210944046365E+00
             -0.512137691057077E+00
             -0.690107043723675E+00
             -0.108758997918964E+01
              0.107373449913215E+01
             -0.147291401216844E+01
             -0.108007562477383E+01
              0.320235753497504E+00
             -0.185343261075401E+01
              0.482909193223974E+00
              0.128752811521141E+01
             -0.232636195979514E+00
              0.400451997249500E+00
             -0.700651146615185E+00
             -0.481357989927813E+00
              0.231928514307192E+00
              0.786727890708745E+00
             -0.806096234938177E+00
              0.504880041933234E+00
             -0.305304002443195E+00
              0.107617788708096E+00
              0.423752693008049E+00
              0.238106477996509E+00
             -0.242729117423282E+00
             -0.193727431771906E-01
              0.298362132917164E+00
              0.598661754016513E+00
             -0.153964520281037E+01
             -0.213539830767289E-01
              0.116959034117043E+01
             -0.195283277792714E+01
              0.716974673179009E+00
             -0.249281501874213E+01
             -0.237113307041138E+00
             -0.315463706872712E+00
             -0.664381872168285E-01
             -0.255788677203323E+00
             -0.606231909505253E+00
             -0.205181293290048E+00
              0.307802784170552E+00
             -0.526985602156166E+00
              0.238386676038487E+00
              0.195916313423515E+01
             -0.125943586612433E+01
             -0.559177199530223E+00
              0.892158597641677E+00
              0.459736673198333E+00
              0.900530268440989E+00
              0.408387344882498E+00
              0.410528776642682E+00
             -0.317425850071680E+00
             -0.107531119835207E+01
             -0.963466991270797E+00
             -0.716191003221770E+00
              0.107598313357880E+00
             -0.920250685299276E+00
             -0.256752194401487E+00
              0.139842943048898E+00
              0.530102146406573E+00
             -0.152593467549355E+00
              0.126843161816409E+01
             -0.138355200314532E+01
             -0.345730986692736E-01
             -0.164126261372001E+00
              0.681741842458624E+00
             -0.946057310812576E+00
             -0.612244410528157E+00
              0.337413639801507E+00
              0.101577633779509E+01
              0.161869928025525E+01
              0.682251814560098E+00
              0.992693514211851E+00
             -0.550652384704920E+00
              0.136746170421718E+01
              0.137966785692842E+01
             -0.593597007362057E-01
              0.703191691749933E+00
              0.832926713025399E+00
             -0.460200964165268E+00
              0.273586775305587E+00
              0.142933366206064E+01
             -0.476100103725576E+00
             -0.169983947919519E+00
             -0.136426418302052E+01
              0.507690188403894E+00
             -0.299669536854795E+00
              0.455349709894973E+00
              0.543013396304870E-01
             -0.858398769880308E+00
              0.993868767567955E+00
              0.864733202497283E+00
             -0.665536945360232E+00
              0.371725956154022E+00
             -0.128178538726306E+01
             -0.118023982612259E+01
              0.541039390511294E+00
             -0.148815360448529E+01
             -0.743650806946960E+00
              0.522718608642183E-01
              0.185856328060129E+01
             -0.485031196861068E+00
             -0.225592383648695E+00
             -0.420590659203047E+00
              0.243766414417950E+01
              0.409971325532931E+00
             -0.915248589482673E+00
              0.152047507243850E+01
              0.135409962470589E+01
              0.712244895373891E+00
              0.172552099713827E+01
              0.186836355244057E+01
             -0.102161618186700E+00
             -0.645185685831942E+00
             -0.566794830625394E+00
              0.587639194081615E+00
              0.843228644405191E+00
             -0.147952215524831E+00
             -0.516831780280506E+00
             -0.125162353869792E+01
             -0.482699971340656E+00
             -0.101041200681756E+01
              0.726197991349260E+00
              0.368839430673578E+00
              0.130054467556293E+01
              0.263959375449872E+00
             -0.507939494195774E+00
             -0.191806572755551E+00
              0.872679845264416E+00
              0.233262488462682E+00
              0.130813090093937E+01
              0.121558720443910E+01
             -0.208036043455301E+00
             -0.183325817890567E+00
             -0.218412831143823E+01
              0.108077192350396E+01
             -0.259931221201537E-01
              0.122009144797463E+01
             -0.533594821097145E+00
             -0.142411988520273E+01
              0.421130873983296E+00
              0.156870881119262E+01
             -0.555110825592599E+00
              0.145722444686818E+01
             -0.156459460110338E+01
             -0.557253829745294E+00
             -0.184525601328644E+01
              0.384106542431955E+00
              0.125873074915666E+00
              0.163703384270758E+00
             -0.134601403724878E+01
              0.199811848833038E+01
              0.116464079034338E+01
              0.137586905048282E+00
             -0.114421579936070E+01
              0.445064445154430E+00
             -0.424719670266869E+00
             -0.304984580498806E+00
             -0.575334605449338E+00
              0.373803227860647E+00
             -0.338930385986929E+00
             -0.399300508993606E+00
              0.503695407509063E+00
              0.507999589676946E+00
             -0.194466382203364E+01
              0.427877406644713E+00
              0.143488360488006E+01
              0.921026331382778E+00
             -0.294884069831591E+00
             -0.244474824078977E-01
             -0.799807860374440E+00
              0.122138491019908E+01
              0.223243792315766E+00
             -0.745470707725193E-01
             -0.124219826049611E+00
              0.237389225547885E+01
             -0.137113392933959E+00
              0.534402701139523E+00
              0.160148823616735E+01
              0.210692070077011E+01
              0.130497823152774E+01
              0.870587369084164E+00
             -0.137005039425886E+01
             -0.100096660723584E+01
              0.790979835892394E+00
              0.708302205590243E-01
              0.664952911868684E+00
              0.287689786085091E+00
              0.139164886558087E+01
             -0.172343644567197E+01
             -0.106808679276038E+01
             -0.237127436864139E+00
             -0.188648509922105E+01
              0.408177477877587E+00
              0.979265017065291E+00
              0.654136373116252E-01
             -0.448876315555825E+00
              0.460201266124068E+00
              0.294927162977459E+01
              0.676945344748404E+00
              0.384618666710958E+00
             -0.104331558858599E+01
             -0.128658061087527E+01
             -0.289418651937377E+00
              0.610650927971911E+00
             -0.126974109846248E+00
              0.537204992566302E+00
              0.756309799557336E+00
             -0.136141192935904E+01
              0.584070393165545E+00
              0.780831264621227E+00
              0.125115326349940E+01
             -0.216224969562765E+00
              0.981065413344275E-01
             -0.155824118409994E+00
             -0.981325089729399E+00
             -0.157963521712985E+01
              0.167356956392876E+01
             -0.221197003024957E+00
             -0.116975239609954E+01
              0.158966675433964E+00
             -0.647904054859525E+00
              0.186395067464710E+01
             -0.484899329773445E+00
             -0.810618715815497E+00
              0.781725833613701E+00
             -0.332065095254021E+00
              0.101128587435788E+01
              0.893219150189495E-02
              0.203311737760723E+01
              0.112493520384853E+01
              0.227895934620591E+00
             -0.849455362760108E+00
              0.615894879709812E+00
             -0.117881111786143E+01
             -0.108049307919708E+00
              0.139528510888571E+01
             -0.548947409428622E+00
             -0.954121807620549E+00
             -0.488530601362272E+00
              0.112531543538484E+01
              0.268971002377449E+00
             -0.177845382685653E+01
              0.741915443582520E+00
              0.161130051757034E+00
              0.228683900472627E+00
             -0.105384782941771E+01
              0.207298551666598E+00
              0.750844155044678E+00
              0.101992596934385E+01
              0.139326353305669E+01
              0.746979015124144E+00
              0.175516719749730E+00
             -0.118344261182581E+01
             -0.912230694886881E+00
             -0.143521255517617E+01
             -0.285821632729570E+00
              0.736375199555606E+00
             -0.136519940388080E-01
              0.112889916020584E+01
             -0.687937533310452E+00
              0.377926320670751E+00
             -0.469811378772146E+00
             -0.581166742971678E+00
              0.127178049333254E+01
              0.118966717444198E+00
              0.133774873333234E+01
              0.118007926043120E+00
              0.439884032852935E+00
             -0.350259539601154E+00
              0.131483046502911E+01
             -0.330382119039421E+00
             -0.134319182899585E-01
             -0.169413184305598E+01
             -0.163417697632168E+00
              0.151909042299364E+01
              0.141654475381309E+01
              0.530636536671850E+00
             -0.340280689464115E+00
              0.935896777493701E-01
             -0.493271488303502E+00
             -0.384985915542622E+00
              0.193264240281369E+01
              0.145046778089828E+00
             -0.614744177192435E+00
             -0.232116020206248E+01
             -0.964514918526481E+00
             -0.817878040971813E+00
             -0.134628398434687E+01
             -0.128294517560503E+01
             -0.154958946066645E+01
             -0.971266727361115E+00
             -0.618692395733705E+00
             -0.103661096014907E+01
              0.959304914852569E+00
             -0.404859653616631E+00
             -0.189442725899656E+01
              0.902649791768881E+00
             -0.717274417906894E+00
             -0.172580386656994E+01
              0.219131277327729E+01
             -0.543033749126786E+00
              0.336479718117129E+00
              0.833902866125246E+00
              0.256132056807660E+00
              0.553696365718967E+00
              0.220509326800338E-01
              0.239626868954337E-01
             -0.266811843981140E+00
             -0.158395458250953E+01
              0.234615986867710E+00
             -0.262929409083556E+01
              0.153816379813904E+01
             -0.870745902598632E+00
             -0.389807404994854E+00
             -0.442799134867991E+00
              0.456357071969812E+00
             -0.353350495207079E+00
              0.627565085021844E+00
             -0.126346778232473E+01
              0.799522509876831E+00
              0.912388092941000E+00
              0.217622306660088E+00
              0.189501627533041E+00
              0.465578401767210E+00
              0.208748524121596E+00
              0.661112156488645E+00
             -0.108732825146147E+00
             -0.157296961005414E+01
              0.209013119677699E+00
             -0.736357700807995E+00
             -0.655222565364664E-01
              0.118517181442999E+01
             -0.173847110985159E+01
              0.347904934449250E-01
              0.698713075849939E-01
              0.199940817840069E+00
              0.670185919617229E+00
             -0.276403984605886E+00
              0.182655411924487E+01
              0.833460510912643E+00
             -0.329970105376551E+00
             -0.211104626446712E+00
              0.130465976124256E+00
              0.171147661253116E+01
             -0.107868450662192E+01
             -0.220461509825800E+01
              0.625043070538539E+00
             -0.165979088974261E+00
             -0.325731583428984E+00
              0.412778606575483E+00
              0.164792152806912E+01
              0.916641905026501E+00
             -0.375268559083084E+00
             -0.116172218659411E+01
             -0.261213032890113E+00
              0.597746250643025E+00
             -0.381864235010465E+00
             -0.164746421357668E+01
             -0.185764815553375E+00
             -0.210629830310021E+01
             -0.111251373833181E+01
              0.186718602951135E+01
             -0.112821377766197E+01
             -0.154456689049245E+01
             -0.115551278434290E+01
             -0.860191114163190E+00
              0.727997189393650E+00
              0.184399969779209E+01
             -0.192629372206492E+00
              0.577931401633904E+00
             -0.433425084627484E+00
             -0.147276198807956E+01
              0.111585585216465E+01
             -0.104298260734772E+01
              0.555460697003276E+00
              0.639362112887576E+00
             -0.332125193208044E+00
              0.830830069123560E+00
              0.853995965783196E+00
              0.258695084647561E+01
             -0.238646718080330E+00
             -0.119285982890988E+01
             -0.144506838431371E+01
             -0.406591323981853E+00
             -0.882101447775525E+00
              0.204558598696488E+01
             -0.977058995817690E+00
              0.220821448353359E+00
              0.642125031148577E-01
             -0.435720372798108E+00
             -0.184661737069239E+01
             -0.142028418962196E+00
              0.217816733872291E+01
              0.453844877536922E+00
              0.167184064785490E+00
             -0.125331025284097E+01
             -0.118717972495433E+01
             -0.371215900193438E+00
              0.983703189379247E+00
             -0.573352870347696E+00
              0.219824013953777E+01
             -0.100608874525076E+01
              0.417450166700494E+00
             -0.317105501194014E+00
             -0.133844539601287E+01
              0.141020233038708E+00
             -0.121908605748084E+01
             -0.160722837208489E+01
              0.227507635487704E+00
              0.313566949568500E-01
              0.106552953031903E+01
              0.580947504915288E+00
             -0.754003435255474E+00
              0.482978437509525E+00
             -0.189713317157044E+01
             -0.104115093041845E+01
              0.202290628400597E+01
              0.101195627940152E+00
             -0.128558788536909E+00
             -0.555907278831727E+00
             -0.896188211088678E-02
             -0.253495923658086E+00
              0.197138382995485E+01
              0.886427886864315E+00
             -0.205073977511161E+00
             -0.174873439029977E-01
             -0.840367658452404E+00
             -0.298368961109228E+00
             -0.136682163034634E+01
              0.111845446972043E+01
              0.141303742530755E+00
              0.178972019200886E+00
              0.393273248401325E+00
             -0.288864137030983E+00
             -0.487950366509812E+00
              0.157575446670862E+00
             -0.241282460339150E+01
             -0.236851903319347E+00
             -0.190823109862094E+00
             -0.138171299642099E+00
              0.108502989206316E+01
              0.139011621345968E+01
              0.382299053991565E+00
             -0.202804541544744E+01
              0.139169775176480E+01
             -0.524613507824296E+00
             -0.808582984590231E+00
             -0.190166979310295E+01
             -0.608670468878320E+00
              0.134660049496040E+01
              0.710822968789481E+00
              0.351039360983044E+00
              0.758180482308894E+00
             -0.121658981302218E+01
             -0.105638927879732E+01
              0.135268502510711E+01
              0.904879521189063E+00
              0.103451113737508E+01
              0.149649964993341E+00
              0.219835595668705E+00
              0.115159829750972E+01
              0.215658430992239E+01
             -0.402724445166540E+00
              0.865447831499271E+00
             -0.589302120020651E+00
             -0.955486142565799E+00
             -0.744255222729747E+00
             -0.709365358930329E+00
             -0.306593467878969E+00
             -0.104788385199463E+01
             -0.434394164158943E+00
             -0.282081028999135E+01
              0.681328354302229E+00
              0.613461675746077E+00
             -0.655327685336689E-01
             -0.812333356223860E+00
             -0.418794043248502E+00
             -0.121536039964549E+01
              0.136458746463922E+00
              0.173026478168660E+01
             -0.408440380103634E+00
             -0.406851276913766E+00
              0.409288148115847E+00
             -0.108832019459350E+01
              0.188083868934460E+01
              0.352664776106317E+00
              0.159794074138745E+00
              0.114415746232222E+01
             -0.106950828756654E+00
              0.128283340244257E+01
              0.427876652350480E+00
             -0.594891637169455E-01
              0.298566701151104E+00
             -0.199722766758533E+00
              0.148016601240600E+01
              0.153377301062034E+00
              0.445887342697407E+00
             -0.187212117376324E+00
              0.233064903018173E+00
             -0.205236322521222E+01
             -0.781721207592255E+00
             -0.106877265498956E+01
              0.111465860186538E+01
             -0.762720575985242E+00
             -0.123100605508069E+01
              0.129750748667734E+01
             -0.311755288040582E+00
              0.907011563479339E+00
             -0.195269920572708E+01
              0.411772987883659E+00
              0.984698224068956E-01
              0.129781410739653E+00
             -0.282587998303029E+00
             -0.136630725609843E+00
              0.109380779295680E+01
              0.656230259829904E-01
             -0.113884810842742E+01
             -0.460862114871836E+00
              0.423886113115939E+00
             -0.251757946682661E+01
             -0.191384857605053E+01
              0.222115437063986E-01
              0.341246280810083E+00
             -0.109044964789594E+01
              0.691189059621511E-02
              0.225635022026904E+01
              0.661339757945269E+00
             -0.117756245669975E+01
              0.170893646862734E+00
             -0.229944541292161E+00
              0.276820813902538E+00
             -0.766821506024296E+00
              0.482518196457076E+00
              0.515880219491653E+00
             -0.194544373313571E+00
              0.245250776064315E+01
             -0.984390176572418E-01
             -0.681073381116601E+00
              0.669494319924546E+00
              0.933017436026923E+00
             -0.712625696233397E+00
             -0.221318042283672E-01
              0.212736368828013E+01
             -0.418071705613521E-01
              0.113287358583316E+01
              0.361933029266738E+00
             -0.163784410271701E+00
             -0.343463365156129E+00
              0.106073302494763E+01
             -0.129445459577313E+01
             -0.533179433993629E-01
             -0.432334514203768E+00
             -0.888819449559969E+00
              0.242417241929434E+00
              0.523619172949340E+00
             -0.201238283924621E-01
             -0.402621890276951E-01
             -0.894851267739153E+00
              0.342275689204575E+00
             -0.300046818363646E-01
             -0.486885765326297E+00
             -0.451730983347157E+00
              0.388991974475388E+00
             -0.125525367966599E-01
             -0.841738438309100E+00
             -0.233667362105953E+01
              0.133237486546591E+00
              0.346622940754496E+00
             -0.105294914683098E+01
             -0.539520525727168E+00
              0.178869661776113E+01
              0.264441648067926E+00
              0.947715754063726E+00
              0.231056890083086E+00
              0.863605506249652E+00
              0.505780491073704E-01
             -0.867280081098786E+00
             -0.233029106731265E+00
              0.120668599766500E+00
              0.670707792561156E+00
              0.165270901810110E+01
              0.107622610152732E+01
              0.634805469063409E-01
              0.235328204507682E+00
              0.131542076400808E+01
              0.614215661874885E+00
             -0.152741328944763E+01
             -0.608725664030901E+00
              0.254413993063217E+00
              0.222777855860161E+00
              0.553282065736480E+00
             -0.112530521403335E+01
              0.122005831331310E+00
              0.891357186220776E+00
              0.106738124099081E+01
             -0.926662399879087E+00
              0.449972823808960E-01
             -0.543930249551430E-01
             -0.458598437513956E+00
             -0.567504622975042E+00
             -0.262672792798511E+00
             -0.245603119795742E+00
              0.243174357143912E+00
              0.914280815680123E+00
             -0.714009509506843E+00
              0.176611702709964E+01
              0.739875538728194E+00
              0.566897284375854E+00
              0.799534751429540E+00
              0.554638343976199E+00
              0.745069197421850E+00
              0.121110304017269E+01
             -0.103285220958428E+01
              0.137241738623900E+01
             -0.246970954898335E+01
              0.690596038722796E+00
             -0.230027096080005E+01
              0.176074293062470E+01
              0.170615695898877E+01
             -0.184840550665446E+00
             -0.103270402157447E+01
             -0.930615423864111E+00
             -0.118370059401079E+01
             -0.142130942225909E+01
              0.118975073434708E+01
              0.937923540058581E+00
              0.534731969228042E+00
              0.576512889730285E+00
              0.961520003257939E+00
             -0.890680964528974E+00
             -0.320297705230386E+00
              0.116078593808343E+01
             -0.257252646842227E+00
              0.107440850513250E+01
              0.168119242046106E+01
             -0.636091657754654E-01
             -0.164311673438334E+01
              0.100571959910285E+00
              0.405413131654445E-01
             -0.228874078775041E+00
              0.786934374853168E-01
             -0.141740032340056E+01
             -0.209108916289591E+00
              0.288532086168031E+00
              0.293509785580985E+00
              0.108296132769147E+01
             -0.908779258209629E+00
              0.115599279057920E+01
             -0.835118251669273E+00
              0.577748802786339E+00
              0.951662505198383E+00
 
 BEEF-vdW xc energy contributions
           1 :   -15.4288766285474     
           2 :    12.8393677346200     
           3 :   -9.08637983690050     
           4 :    5.51937537871184     
           5 :   -2.78379020563829     
           6 :    1.01276930414003     
           7 :  -6.939567099230004E-002
           8 :  -0.314514383281171     
           9 :   0.420159035126119     
          10 :  -0.458716420462629     
          11 :   0.515766397912195     
          12 :  -0.572223232335489     
          13 :   0.576500546264569     
          14 :  -0.508373860085250     
          15 :   0.381392670850214     
          16 :  -0.226224283991026     
          17 :   7.794057910735219E-002
          18 :   3.175135345442115E-002
          19 :  -8.749571687697255E-002
          20 :   9.212148594057723E-002
          21 :  -6.237730256862761E-002
          22 :   1.805007867615060E-002
          23 :   2.277002694151520E-002
          24 :  -4.728209475362632E-002
          25 :   5.059037506177688E-002
          26 :  -3.842149089272695E-002
          27 :   2.144732537160365E-002
          28 :  -9.528482492406454E-003
          29 :   7.129686567726168E-003
          30 :  -1.362567470463460E-002
          31 :   -1.98635822874127     
          32 :   -1.24911382492425     

     Writing output data file ./pwscf.save/
 
     init_run     :     74.01s CPU     76.89s WALL (       1 calls)
     electrons    :    533.03s CPU    584.89s WALL (       1 calls)
     forces       :     32.78s CPU     35.37s WALL (       1 calls)

     Called by init_run:
     wfcinit      :      1.98s CPU      2.05s WALL (       1 calls)
     potinit      :     58.15s CPU     60.13s WALL (       1 calls)
     hinit0       :     11.88s CPU     12.02s WALL (       1 calls)

     Called by electrons:
     c_bands      :     69.53s CPU     70.48s WALL (      15 calls)
     sum_band     :     51.37s CPU     60.75s WALL (      15 calls)
     v_of_rho     :    313.15s CPU    342.58s WALL (      16 calls)
     newd         :     21.80s CPU     31.52s WALL (      16 calls)
     PAW_pot      :      2.03s CPU      2.04s WALL (      16 calls)
     mix_rho      :    125.66s CPU    130.48s WALL (      15 calls)
     vdW_kernel   :     33.46s CPU     33.46s WALL (       1 calls)

     Called by c_bands:
     init_us_2    :      1.59s CPU      1.61s WALL (      31 calls)
     regterg      :     66.44s CPU     67.39s WALL (      15 calls)

     Called by *egterg:
     rdiaghg      :      0.02s CPU      0.02s WALL (      79 calls)
     h_psi        :     60.33s CPU     60.34s WALL (      80 calls)
     s_psi        :      1.59s CPU      1.59s WALL (      80 calls)
     g_psi        :      0.20s CPU      0.20s WALL (      64 calls)

     Called by h_psi:
     h_psi:calbec :      1.28s CPU      1.28s WALL (      80 calls)
     vloc_psi     :     57.06s CPU     57.07s WALL (      80 calls)
     add_vuspsi   :      1.62s CPU      1.62s WALL (      80 calls)

     General routines
     calbec       :      1.69s CPU      1.69s WALL (      99 calls)
     fft          :    280.95s CPU    280.99s WALL (    2873 calls)
     ffts         :     54.90s CPU     54.91s WALL (     573 calls)
     fftw         :     56.01s CPU     56.01s WALL (     582 calls)
 
     Parallel routines
 
     PWSCF        :  19m45.23s CPU  21m43.49s WALL

 
   This run was terminated on:   9:57:40   4Jan2023            

=------------------------------------------------------------------------------=
   JOB DONE.
=------------------------------------------------------------------------------=
