
     Program PWSCF v.6.7MaX starts on  4Jan2023 at  9:42:47 

     This program is part of the open-source Quantum ESPRESSO suite
     for quantum simulation of materials; please cite
         "P. Giannozzi et al., J. Phys.:Condens. Matter 21 395502 (2009);
         "P. Giannozzi et al., J. Phys.:Condens. Matter 29 465901 (2017);
          URL http://www.quantum-espresso.org", 
     in publications or presentations arising from this work. More details at
     http://www.quantum-espresso.org/quote

     Parallel version (MPI), running on     1 processors

     MPI processes distributed on     1 nodes
     Reading input from chchch-gas-ensemble.in
Warning: card &CELL ignored
Warning: card / ignored

     Current dimensions of program PWSCF are:
     Max number of different atomic species (ntypx) = 10
     Max number of k-points (npk) =  40000
     Max angular momentum in pseudopotentials (lmaxx) =  3
     file C.pbe-n-kjpaw_psl.1.0.0.UPF: wavefunction(s)  2S 2P renormalized
     file H.pbe-kjpaw_psl.1.0.0.UPF: wavefunction(s)  1S renormalized

     **************************************************************************
     Initializing libbeef V0.1.2 with the BEEF-vdW functional.
     Citation: Wellendorff et al., PRB 85, 235149 (2012).
     **************************************************************************


     IMPORTANT: XC functional enforced from input :
     Exchange-correlation= BEEF-VDW
                           (   1   4  43  14   2   0   0)
     Any further DFT definition will be discarded
     Please, verify this is what you really want


     gamma-point specific algorithms are used

     Subspace diagonalization in iterative solution of the eigenvalue problem:
     a serial algorithm will be used

 
     G-vector sticks info
     --------------------
     sticks:   dense  smooth     PW     G-vecs:    dense   smooth      PW
     Sum       35713   35713   8927              4812007  4812007  601535
 


     bravais-lattice index     =            0
     lattice parameter (alat)  =      41.9365  a.u.
     unit-cell volume          =   76644.6513 (a.u.)^3
     number of atoms/cell      =            6
     number of atomic types    =            2
     number of electrons       =        15.00
     number of Kohn-Sham states=           12
     kinetic-energy cutoff     =      60.0000  Ry
     charge density cutoff     =     240.0000  Ry
     scf convergence threshold =      1.0E-06
     mixing beta               =       0.7000
     number of iterations used =            8  local-TF  mixing
     Exchange-correlation= BEEF-VDW
                           (   1   4  43  14   2   0   0)

     celldm(1)=  41.936493  celldm(2)=   0.000000  celldm(3)=   0.000000
     celldm(4)=   0.000000  celldm(5)=   0.000000  celldm(6)=   0.000000

     crystal axes: (cart. coord. in units of alat)
               a(1) = (   1.000000   0.000000   0.000000 )  
               a(2) = (   0.000000   1.063762   0.000000 )  
               a(3) = (   0.000000   0.000000   0.976925 )  

     reciprocal axes: (cart. coord. in units 2 pi/alat)
               b(1) = (  1.000000  0.000000  0.000000 )  
               b(2) = (  0.000000  0.940060  0.000000 )  
               b(3) = (  0.000000  0.000000  1.023620 )  


     PseudoPot. # 1 for C  read from file:
     /users/bkreitz1/quantum-espresso/potentials/C.pbe-n-kjpaw_psl.1.0.0.UPF
     MD5 check sum: a169b0ebad56f5ec0d79c4633f80bf22
     Pseudo is Projector augmented-wave + core cor, Zval =  4.0
     Generated using 'atomic' code by A. Dal Corso  v.6.7MaX
     Shape of augmentation charge: PSQ
     Using radial grid of 1073 points,  4 beta functions with: 
                l(1) =   0
                l(2) =   0
                l(3) =   1
                l(4) =   1
     Q(r) pseudized with 0 coefficients 


     PseudoPot. # 2 for H  read from file:
     /users/bkreitz1/quantum-espresso/potentials/H.pbe-kjpaw_psl.1.0.0.UPF
     MD5 check sum: ae98473e6dc62675f0d0baffdab24f65
     Pseudo is Projector augmented-wave, Zval =  1.0
     Generated using 'atomic' code by A. Dal Corso  v.6.7MaX
     Shape of augmentation charge: PSQ
     Using radial grid of  929 points,  2 beta functions with: 
                l(1) =   0
                l(2) =   0
     Q(r) pseudized with 0 coefficients 


     atomic species   valence    mass     pseudopotential
        C              4.00    12.01100     C ( 1.00)
        H              1.00     1.00800     H ( 1.00)

     No symmetry found



   Cartesian axes

     site n.     atom                  positions (alat units)
         1           C   tau(   1) = (   0.4709439   0.4835005   0.4506264  )
         2           C   tau(   2) = (   0.5001490   0.5318083   0.4763554  )
         3           C   tau(   3) = (   0.5287198   0.5804815   0.4505377  )
         4           H   tau(   4) = (   0.4508074   0.4506105   0.4816425  )
         5           H   tau(   5) = (   0.5006147   0.5315043   0.5263766  )
         6           H   tau(   6) = (   0.5490928   0.6131888   0.4820093  )

     number of k points=     1  Gaussian smearing, width (Ry)=  0.0050
                       cart. coord. in units 2pi/alat
        k(    1) = (   0.0000000   0.0000000   0.0000000), wk =   2.0000000

     Dense  grid:  2406004 G-vectors     FFT dimensions: ( 216, 225, 216)

     Estimated max dynamical RAM per process >       3.75 GB

     Initial potential from superposition of free atoms

     starting charge   14.99985, renormalised to   15.00000

     negative rho (up, down):  9.235E-03 0.000E+00


     %%%%%%%%%%%%%%%%%%%%%%%%%%%%%%%%%%%%%%%%%%%%%%%%%%%%%%%%%%%%%%%%%%%%%%%%
     %                                                                      %
     % You are using vdW-DF, which was implemented by the Thonhauser group. %
     % Please cite the following two papers that made this development      %
     % possible and the two reviews that describe the various versions:     %
     %                                                                      %
     %   T. Thonhauser et al., PRL 115, 136402 (2015).                      %
     %   T. Thonhauser et al., PRB 76, 125112 (2007).                       %
     %   K. Berland et al., Rep. Prog. Phys. 78, 066501 (2015).             %
     %   D.C. Langreth et al., J. Phys.: Condens. Matter 21, 084203 (2009). %
     %                                                                      %
     %                                                                      %
     % If you are calculating the stress with vdW-DF, please also cite:     %
     %                                                                      %
     %   R. Sabatini et al., J. Phys.: Condens. Matter 24, 424209 (2012).   %
     %                                                                      %
     %%%%%%%%%%%%%%%%%%%%%%%%%%%%%%%%%%%%%%%%%%%%%%%%%%%%%%%%%%%%%%%%%%%%%%%%


     Starting wfcs are   15 randomized atomic wfcs
     Checking if some PAW data can be deallocated... 

     total cpu time spent up to now is       70.5 secs

     Self-consistent Calculation

     iteration #  1     ecut=    60.00 Ry     beta= 0.70
     Davidson diagonalization with overlap
     ethr =  1.00E-02,  avg # of iterations =  6.0

     negative rho (up, down):  7.696E-03 0.000E+00

     total cpu time spent up to now is      109.5 secs

     total energy              =     -60.16929034 Ry
     estimated scf accuracy    <       0.60232630 Ry

     iteration #  2     ecut=    60.00 Ry     beta= 0.70
     Davidson diagonalization with overlap
     ethr =  4.02E-03,  avg # of iterations =  1.0

     negative rho (up, down):  5.405E-03 0.000E+00

     total cpu time spent up to now is      145.9 secs

     total energy              =     -60.10560620 Ry
     estimated scf accuracy    <       0.16323908 Ry

     iteration #  3     ecut=    60.00 Ry     beta= 0.70
     Davidson diagonalization with overlap
     ethr =  1.09E-03,  avg # of iterations =  4.0

     negative rho (up, down):  5.814E-03 0.000E+00

     total cpu time spent up to now is      184.2 secs

     total energy              =     -60.12680500 Ry
     estimated scf accuracy    <       0.01902420 Ry

     iteration #  4     ecut=    60.00 Ry     beta= 0.70
     Davidson diagonalization with overlap
     ethr =  1.27E-04,  avg # of iterations =  7.0

     negative rho (up, down):  2.880E-02 0.000E+00

     total cpu time spent up to now is      223.5 secs

     total energy              =     -60.12388418 Ry
     estimated scf accuracy    <       0.01034503 Ry

     iteration #  5     ecut=    60.00 Ry     beta= 0.70
     Davidson diagonalization with overlap
     ethr =  6.90E-05,  avg # of iterations =  5.0

     negative rho (up, down):  3.482E-02 0.000E+00

     total cpu time spent up to now is      262.6 secs

     total energy              =     -60.12389273 Ry
     estimated scf accuracy    <       0.00482329 Ry

     iteration #  6     ecut=    60.00 Ry     beta= 0.70
     Davidson diagonalization with overlap
     ethr =  3.22E-05,  avg # of iterations =  2.0

     negative rho (up, down):  8.627E-02 0.000E+00

     total cpu time spent up to now is      300.5 secs

     total energy              =     -60.12471470 Ry
     estimated scf accuracy    <       0.00365604 Ry

     iteration #  7     ecut=    60.00 Ry     beta= 0.70
     Davidson diagonalization with overlap
     ethr =  2.44E-05,  avg # of iterations = 10.0

     negative rho (up, down):  9.604E-02 0.000E+00

     total cpu time spent up to now is      342.2 secs

     total energy              =     -60.12520673 Ry
     estimated scf accuracy    <       0.00188570 Ry

     iteration #  8     ecut=    60.00 Ry     beta= 0.70
     Davidson diagonalization with overlap
     ethr =  1.26E-05,  avg # of iterations =  2.0

     negative rho (up, down):  8.069E-02 0.000E+00

     total cpu time spent up to now is      380.1 secs

     total energy              =     -60.12441784 Ry
     estimated scf accuracy    <       0.00086949 Ry

     iteration #  9     ecut=    60.00 Ry     beta= 0.70
     Davidson diagonalization with overlap
     c_bands:  1 eigenvalues not converged
     ethr =  5.80E-06,  avg # of iterations = 20.0

     negative rho (up, down):  6.410E-02 0.000E+00

     total cpu time spent up to now is      425.2 secs

     total energy              =     -60.12413071 Ry
     estimated scf accuracy    <       0.00040676 Ry

     iteration # 10     ecut=    60.00 Ry     beta= 0.70
     Davidson diagonalization with overlap
     c_bands:  1 eigenvalues not converged
     ethr =  2.71E-06,  avg # of iterations = 20.0

     negative rho (up, down):  4.618E-02 0.000E+00

     total cpu time spent up to now is      469.4 secs

     total energy              =     -60.12380047 Ry
     estimated scf accuracy    <       0.00018184 Ry

     iteration # 11     ecut=    60.00 Ry     beta= 0.70
     Davidson diagonalization with overlap
     ethr =  1.21E-06,  avg # of iterations = 12.0

     negative rho (up, down):  3.623E-02 0.000E+00

     total cpu time spent up to now is      511.9 secs

     total energy              =     -60.12376917 Ry
     estimated scf accuracy    <       0.00008348 Ry

     iteration # 12     ecut=    60.00 Ry     beta= 0.70
     Davidson diagonalization with overlap
     ethr =  5.57E-07,  avg # of iterations =  5.0

     negative rho (up, down):  2.574E-02 0.000E+00

     total cpu time spent up to now is      551.1 secs

     total energy              =     -60.12381052 Ry
     estimated scf accuracy    <       0.00003788 Ry

     iteration # 13     ecut=    60.00 Ry     beta= 0.70
     Davidson diagonalization with overlap
     ethr =  2.53E-07,  avg # of iterations =  9.0

     negative rho (up, down):  2.005E-02 0.000E+00

     total cpu time spent up to now is      590.7 secs

     total energy              =     -60.12381457 Ry
     estimated scf accuracy    <       0.00001314 Ry

     iteration # 14     ecut=    60.00 Ry     beta= 0.70
     Davidson diagonalization with overlap
     c_bands:  1 eigenvalues not converged
     ethr =  8.76E-08,  avg # of iterations = 20.0

     negative rho (up, down):  1.768E-02 0.000E+00

     total cpu time spent up to now is      633.8 secs

     total energy              =     -60.12382200 Ry
     estimated scf accuracy    <       0.00000916 Ry

     iteration # 15     ecut=    60.00 Ry     beta= 0.70
     Davidson diagonalization with overlap
     ethr =  6.11E-08,  avg # of iterations =  6.0

     negative rho (up, down):  1.606E-02 0.000E+00

     total cpu time spent up to now is      672.2 secs

     total energy              =     -60.12382512 Ry
     estimated scf accuracy    <       0.00000118 Ry

     iteration # 16     ecut=    60.00 Ry     beta= 0.70
     Davidson diagonalization with overlap
     ethr =  7.88E-09,  avg # of iterations =  1.0

     negative rho (up, down):  1.547E-02 0.000E+00

     total cpu time spent up to now is      699.8 secs

     End of self-consistent calculation

          k = 0.0000 0.0000 0.0000 (300768 PWs)   bands (ev):

   -20.6417 -17.3619 -13.1584 -12.3161 -10.5329  -8.5872  -6.0861  -5.2640
    -4.7839  -1.1020  -0.5976  -0.4420

     the Fermi energy is    -5.2640 ev

!    total energy              =     -60.12382453 Ry

     total all-electron energy =      -233.416103 Ry
     estimated scf accuracy    <       0.00000037 Ry
     smearing contrib. (-TS)   =      -0.00282095 Ry
     internal energy E=F+TS    =     -60.12100358 Ry

     The total energy is F=E-TS. E is the sum of the following terms:
     one-electron contribution =    -131.22417865 Ry
     hartree contribution      =      67.37653406 Ry
     xc contribution           =     -16.19914709 Ry
     ewald contribution        =      39.59643964 Ry
     one-center paw contrib.   =     -19.67065154 Ry

     convergence has been achieved in  16 iterations

     negative rho (up, down):  1.547E-02 0.000E+00

     Forces acting on atoms (cartesian axes, Ry/au):

     atom    1 type  1   force =    -0.00009896   -0.00010175    0.00233785
     atom    2 type  1   force =    -0.00090445   -0.00095017   -0.00179786
     atom    3 type  1   force =     0.00330201    0.00490931    0.00695602
     atom    4 type  2   force =     0.00046462   -0.00011755   -0.00108142
     atom    5 type  2   force =     0.00007709    0.00011218   -0.00088743
     atom    6 type  2   force =    -0.00284029   -0.00385201   -0.00552716

     Total force =     0.012227     Total SCF correction =     0.000247

     negative rho (up, down):  1.547E-02 0.000E+00

     negative rho (up, down):  1.547E-02 0.000E+00

     negative rho (up, down):  1.547E-02 0.000E+00

     negative rho (up, down):  1.547E-02 0.000E+00

     negative rho (up, down):  1.547E-02 0.000E+00

     negative rho (up, down):  1.547E-02 0.000E+00

     negative rho (up, down):  1.547E-02 0.000E+00

     negative rho (up, down):  1.547E-02 0.000E+00

     negative rho (up, down):  1.547E-02 0.000E+00

     negative rho (up, down):  1.547E-02 0.000E+00

     negative rho (up, down):  1.547E-02 0.000E+00

     negative rho (up, down):  1.547E-02 0.000E+00

     negative rho (up, down):  1.547E-02 0.000E+00

     negative rho (up, down):  1.547E-02 0.000E+00

     negative rho (up, down):  1.547E-02 0.000E+00

     negative rho (up, down):  1.547E-02 0.000E+00

     negative rho (up, down):  1.547E-02 0.000E+00

     negative rho (up, down):  1.547E-02 0.000E+00

     negative rho (up, down):  1.547E-02 0.000E+00

     negative rho (up, down):  1.547E-02 0.000E+00

     negative rho (up, down):  1.547E-02 0.000E+00

     negative rho (up, down):  1.547E-02 0.000E+00

     negative rho (up, down):  1.547E-02 0.000E+00

     negative rho (up, down):  1.547E-02 0.000E+00

     negative rho (up, down):  1.547E-02 0.000E+00

     negative rho (up, down):  1.547E-02 0.000E+00

     negative rho (up, down):  1.547E-02 0.000E+00

     negative rho (up, down):  1.547E-02 0.000E+00

     negative rho (up, down):  1.547E-02 0.000E+00

     negative rho (up, down):  1.547E-02 0.000E+00

     negative rho (up, down):  1.547E-02 0.000E+00

     negative rho (up, down):  1.547E-02 0.000E+00

     negative rho (up, down):  1.547E-02 0.000E+00

     negative rho (up, down):  1.547E-02 0.000E+00
 BEEFens 2000 ensemble energies
             -0.124888634558346E+01
             -0.415023513233699E-01
             -0.238458160725442E+00
              0.841324464875282E+00
             -0.398106971862190E+00
             -0.278031894087957E+00
             -0.938896029000916E+00
             -0.187447439422864E+01
             -0.602872362924549E+00
             -0.654847307888653E+00
             -0.693032009593666E+00
              0.142556550844848E+00
              0.718913549305946E-01
             -0.135321022919880E+00
              0.764157267738468E-01
              0.893878481713791E+00
             -0.356011137630489E+00
             -0.127118874233766E+00
              0.475698417948614E+00
             -0.209577779100571E+01
              0.107771212659994E+01
             -0.332510514961935E+00
             -0.121902165226910E+00
             -0.156981822252226E+00
              0.936076242067312E-01
             -0.718495366705945E-01
              0.166427486829849E+01
             -0.486883978944349E+00
             -0.136032365183775E+00
             -0.108695840858422E+01
              0.123701020121917E+01
             -0.182686879638752E-01
             -0.792079648378166E+00
              0.307595770156790E+00
             -0.545611737589846E-01
              0.600248373848667E+00
              0.608106954925116E-01
             -0.415197982796265E-01
              0.775751798316508E+00
             -0.185888073140184E+01
              0.104360354479304E+01
              0.231491600671229E+00
             -0.283137376844286E+00
             -0.539132008429938E+00
              0.232247858884348E+00
             -0.368967473385517E+00
              0.989340304185866E+00
              0.656852180893461E+00
             -0.310569213969304E+00
             -0.616878582781311E+00
             -0.592356059409653E+00
             -0.723192074332041E+00
              0.475314028973115E+00
             -0.994186130846431E+00
              0.327245633639913E+00
              0.116747646195307E+01
              0.147754502423442E+01
              0.598091779593025E+00
              0.302473961483543E+00
              0.646252808538769E+00
              0.174276988170274E+01
              0.273849820248412E+00
             -0.103998988457700E+01
             -0.155309230180182E+00
             -0.579941210764930E+00
              0.117227524085213E+01
             -0.132978311778418E+01
             -0.110695997720329E+01
             -0.685900744644920E+00
             -0.435850405254227E+00
             -0.692288814505284E+00
              0.529690987208631E+00
              0.262391779607428E+00
              0.321311877665032E+00
             -0.735354154981790E+00
             -0.676206430106559E+00
             -0.114098917286445E+01
              0.556802976289967E+00
             -0.674259472554950E+00
              0.639493864949312E+00
             -0.176135882902068E+00
             -0.515237733374018E+00
             -0.908191248515284E+00
             -0.270172109237911E+00
             -0.333194649834203E+00
             -0.262775941173398E+00
              0.734692890472438E+00
              0.153386712563446E+01
             -0.891195365092375E+00
             -0.149860230445129E+01
             -0.338753718441916E+00
              0.204423553298342E+01
             -0.106685282585621E+01
              0.571733060887375E+00
             -0.233613894905638E+00
             -0.109087996507883E+01
              0.521894351542369E+00
              0.533749908394567E+00
             -0.280961009594010E+00
              0.511652341984322E+00
             -0.448751005379584E+00
             -0.121943961002884E+01
              0.196485384506898E+01
              0.858213968932295E+00
              0.353580033987497E+00
              0.237403428388398E+00
              0.473458223624932E+00
              0.152939894442159E+01
             -0.507776187958039E+00
              0.427653329548203E-01
             -0.260035111065429E+01
              0.311247087916646E+00
             -0.123544595121896E+01
              0.234309649487344E+00
              0.414718142538587E+00
             -0.724995926754923E+00
             -0.926824772341812E+00
              0.246557226489088E-01
             -0.596647891954905E+00
              0.880415380166125E+00
             -0.846099609753792E+00
             -0.195735141710765E+00
             -0.733315237079431E+00
             -0.638629278284366E-01
              0.128765662720852E+00
              0.481607467703059E+00
             -0.107980700978985E-01
             -0.108045065119857E+00
              0.130608209062387E+01
              0.175288968224919E+01
              0.950250648804307E+00
              0.116100704149397E+01
             -0.253111883803459E+00
              0.131771916607685E+00
              0.965207760558894E+00
              0.163680993593751E+00
             -0.145678585753727E+01
             -0.872332258866043E+00
             -0.925961236362744E+00
             -0.558423457214824E+00
              0.474797419154653E+00
             -0.232381416248956E+01
             -0.216945940583168E+00
              0.902012548083319E+00
             -0.766802715386387E+00
             -0.518155232044359E+00
              0.114303310296795E+01
              0.941476359159688E+00
             -0.523652542519880E+00
              0.706626641659662E+00
             -0.481303818119010E+00
              0.721381415188110E+00
              0.123231023269481E+00
              0.160380557816754E+00
             -0.153310226339923E+01
             -0.900275002727023E+00
             -0.168080121488963E+00
             -0.882170818235661E-01
             -0.828680822699232E+00
              0.213090929388815E+01
             -0.176052699353230E+00
             -0.484549614411641E+00
              0.723472405367884E+00
             -0.821440125671699E+00
             -0.740119695388094E+00
              0.633996594881584E+00
              0.242537649176422E+00
              0.207638556165502E+00
              0.341868118312748E+00
             -0.197952039277580E+00
              0.145149553928595E+00
              0.109471554613081E+01
             -0.483365828943327E+00
              0.434205184571683E+00
              0.167725343585399E+01
              0.598399693708942E+00
             -0.649466588062264E-01
             -0.410411755537819E+00
              0.296092831780591E+01
             -0.508651799946753E+00
              0.764060800560589E+00
              0.623910219796900E+00
              0.478620235361710E+00
              0.175947416191071E+01
              0.850593472619654E+00
             -0.985477526635488E-01
              0.498751139326050E+00
              0.100704405287331E+01
              0.725067822291829E+00
             -0.118758651440974E+01
              0.179976820111069E+01
             -0.163522140766816E+01
             -0.160678936555479E+00
              0.104738975179984E+01
              0.388421731734212E+00
              0.108789103870683E+00
              0.480863646375064E+00
              0.264025756354117E+00
              0.603549445852204E+00
             -0.117709741141601E+01
              0.574213871534681E-01
             -0.429954591428999E+00
             -0.879057123462856E-01
             -0.717666195123687E-01
             -0.273028649700294E+00
             -0.131024695275232E+00
              0.157305452307676E+01
             -0.833280823306422E-01
             -0.538436893082319E+00
             -0.131425987675426E-01
              0.278650213473418E+00
             -0.123827718650927E+01
             -0.112459821152731E+01
             -0.630224267489975E+00
             -0.119678772150350E+01
             -0.365869524251391E+00
             -0.753551676167544E+00
              0.337480314611317E+00
              0.646361177991244E-01
             -0.256410053831456E+00
             -0.145863030198288E+00
              0.817317690066424E-01
             -0.194390393704587E+00
              0.123871425067515E+01
             -0.169994486675630E+01
             -0.252337979964171E+00
             -0.236447104447037E+00
              0.281295454174456E+00
              0.446941696883949E+00
             -0.985161261815492E+00
             -0.197845088642441E+00
              0.853712075894530E+00
             -0.344543635244020E+00
              0.255597000487573E+00
              0.615259821878352E+00
             -0.904327948833661E-02
              0.217638436409978E+01
             -0.147250900265364E+00
             -0.642298100396546E+00
             -0.208069025721676E-01
             -0.553457984254303E+00
              0.104440687545792E+01
             -0.976820494378897E+00
              0.282817157521329E+00
              0.884810390110051E+00
             -0.236826705110779E+00
              0.223225563128471E+01
              0.242282874018378E+01
             -0.135070680554643E+01
              0.109266004024835E+01
              0.486856121848819E+00
             -0.108774055407578E+01
              0.309745673612332E+00
              0.861312801371525E+00
              0.930232428449306E+00
              0.881309092333558E-01
              0.374082654267266E+00
              0.145390299363444E+01
             -0.439338289677747E+00
              0.160621920264129E+00
              0.124527161954195E+01
             -0.678386898453032E+00
             -0.511877217788147E+00
              0.116422466180192E+01
              0.593721098939822E+00
              0.144272815169663E+01
              0.694084830631138E+00
              0.292628331939346E+00
              0.463428120419300E+00
              0.827547060588382E+00
             -0.105273967470192E+01
              0.173985914477836E+00
              0.597093601163056E+00
              0.215519036567079E+00
              0.478250813012151E+00
             -0.120346795206202E+01
              0.588216723489488E+00
             -0.811698258360156E+00
             -0.592372024304626E+00
              0.400263787926548E+00
             -0.130133607512156E+00
              0.116917698443028E+01
             -0.197531863983627E+00
              0.565892834434286E+00
              0.553139269209835E+00
              0.144452763288239E+01
              0.980349544672877E+00
              0.991167837609185E+00
              0.125115545323258E-01
             -0.246353090954360E+00
             -0.557446646494528E+00
              0.159237250283105E+01
              0.157624826198605E+01
              0.764375863753421E+00
             -0.571264042637585E+00
              0.929460800192049E+00
              0.596652058844098E-01
              0.286007963569315E+00
              0.135282231405793E+01
             -0.602361118368946E-01
             -0.191184649384975E+00
             -0.353346909635418E+00
             -0.122273641571324E+01
              0.183648559112512E+01
              0.102597155091729E+01
             -0.126587180186841E+01
             -0.444285820234584E+00
              0.464469183482764E+00
             -0.189090056708455E+00
              0.127106004719272E+01
              0.282734020064902E+00
              0.155125355257727E+01
              0.616810575225379E+00
             -0.404060394606407E+00
              0.306011649671944E+00
             -0.139589528443712E+00
             -0.444124142512895E+00
              0.321126838545059E+00
              0.269888676013156E+00
              0.173866997507668E+01
              0.144367140975292E+01
              0.110630138145231E+01
              0.124241567633989E+01
              0.134200083364152E+00
             -0.476914265266059E+00
              0.249386044130889E+00
             -0.617838689446009E+00
             -0.111494130875465E+01
             -0.105884131569987E+01
             -0.629144789894790E+00
             -0.205425184667991E+01
             -0.743968627561218E+00
             -0.166795611996566E+01
              0.411135134371224E+00
             -0.850233878329629E+00
              0.101457864932220E+01
             -0.191591899319136E+01
             -0.557559212277577E+00
              0.668708676318644E+00
              0.411288725425160E+00
             -0.175911758012029E+01
              0.967704277596059E+00
             -0.552336021148682E+00
              0.106439057289960E+01
             -0.498487822741309E+00
             -0.150398675181665E+01
              0.345828300569210E+00
             -0.127010234382617E+01
             -0.955498584843806E-02
             -0.473124511269393E-01
              0.773406184825406E+00
              0.239978663779810E+01
             -0.800682234402443E+00
             -0.710547860086380E+00
             -0.146344638440943E+00
             -0.130721423813259E+00
             -0.151991622821795E+01
             -0.106483790980202E+01
              0.927065502704213E+00
             -0.308985336962552E+00
              0.460118999268445E+00
             -0.936341180163331E+00
             -0.321776468401681E+00
             -0.786702543251562E+00
              0.902988654695787E+00
              0.203470764854265E+00
             -0.470344839603822E+00
             -0.375357561186193E+00
              0.277002711958747E+00
             -0.142988960499021E+00
              0.754480056100375E+00
             -0.503829292613775E+00
              0.260902033176105E+00
              0.658064636541225E+00
              0.212479080727425E+00
             -0.490942572336154E+00
              0.294079288072688E+01
              0.117093256448650E+01
              0.210316658299075E+00
              0.977596038335129E-01
             -0.115900751664309E+01
              0.641821276770384E+00
             -0.151177334659745E+01
             -0.677459571577391E+00
             -0.115812491009551E+01
             -0.346178134900046E+00
              0.113876285747099E+01
             -0.111377357349157E+01
              0.550236069223061E+00
             -0.917421793212849E-01
              0.130870831903427E-01
             -0.569420948163700E+00
             -0.774069212918464E+00
             -0.153947181362630E+00
             -0.574745102865414E+00
             -0.410558461637239E+00
             -0.761511572712971E+00
             -0.835262898934794E-01
             -0.600861671074522E+00
             -0.916659128319272E+00
              0.391044161669235E+00
             -0.196627058255694E+00
              0.478760014049942E+00
              0.149859228593454E+00
             -0.145492780971085E+01
             -0.947390380205419E+00
             -0.100046534552664E+01
              0.583939306390672E+00
             -0.152082101046723E+00
             -0.116014380849863E+01
              0.108766632260388E+01
             -0.811800118593043E+00
              0.115193847048550E+01
             -0.607951241624642E+00
             -0.936603500230020E+00
              0.445054866488354E+00
             -0.139788923665553E+01
             -0.580208912712513E+00
              0.108748519064259E+01
              0.391947251523991E+00
             -0.871772855913974E+00
              0.108603578806806E+01
             -0.310826917819636E+00
             -0.725545300518824E+00
             -0.567916688223923E+00
             -0.100387080425601E+01
              0.508647015890060E+00
             -0.164809101562489E+01
             -0.142760033445046E+01
             -0.152931937644038E+00
             -0.547464757901643E+00
             -0.117345148465189E+01
              0.147257650004181E+01
              0.264991318740559E+01
             -0.364186698785544E+00
             -0.803578934103912E-01
             -0.113380375792495E+01
              0.126602795009966E+01
              0.430881761919974E+00
             -0.424044198054185E+00
             -0.673075545575073E+00
              0.270794416257238E+00
             -0.112629646370169E+01
             -0.200429018364948E+00
             -0.162268263284354E+01
              0.656908763301587E+00
              0.189183236964978E+00
             -0.125868689504049E+00
             -0.252318345582756E+00
             -0.846240699493531E+00
             -0.272923708226358E+00
              0.264627574508990E+01
             -0.286303069525907E+00
             -0.950721898205991E+00
             -0.133389597951048E+01
              0.278717436355094E+00
             -0.753022416972896E+00
              0.211979769557224E+00
              0.654483563817207E+00
              0.891824616557946E-01
              0.708689330273770E+00
              0.369770466867804E+00
              0.111269947317846E+01
              0.440322820654808E+00
             -0.711947684432742E+00
              0.109878598350237E+01
              0.645824667921929E+00
              0.240166138125085E+00
              0.683554455035456E+00
             -0.640174014594169E+00
              0.135867828501461E+01
              0.531784564983033E+00
             -0.681979475951842E+00
             -0.103495834727051E+00
             -0.312124884631825E+00
              0.266442205445863E+00
             -0.467769249840200E+00
             -0.269120620708510E+00
             -0.260366976700926E+00
              0.154479661415145E+01
              0.113215078244197E+01
             -0.119711570754713E+01
             -0.177292885358081E+00
             -0.933966790615503E+00
             -0.235265890220765E+00
             -0.397379531611155E+00
              0.233121703633843E+00
             -0.600708050093408E-01
             -0.562674767639388E+00
              0.359529340812874E+00
             -0.187511182372576E+00
             -0.116985935124914E+00
              0.166768174326746E+01
              0.267590969143694E+00
             -0.161277515780296E+01
             -0.703801546608529E+00
              0.185440037236762E+01
              0.449764819401731E+00
             -0.157494519928415E+00
              0.211207123341331E+01
             -0.295152074098692E+00
             -0.133216243451352E+00
             -0.248918090700087E+00
              0.316336211217981E+00
              0.663592542159412E+00
              0.412050494852421E-01
              0.541996461336270E+00
             -0.187543628894824E+00
             -0.800959701765079E+00
             -0.752899884212402E+00
             -0.923451193058874E+00
              0.757639896431161E+00
              0.279412323133432E+00
              0.724394313843150E+00
              0.310785634788957E+00
              0.173980995648009E+01
              0.401497872774242E+00
             -0.146401768983476E+01
             -0.629718876910640E+00
              0.244395515122573E-01
             -0.533445480168784E+00
              0.123036221316997E+01
             -0.316443292010534E+00
              0.325721295585170E+00
              0.107832360160117E+01
             -0.157055151327067E+01
              0.282243210288536E+01
              0.376037779986506E+00
              0.455067907075856E+00
              0.737927496646894E+00
              0.526152678200056E-01
             -0.320973262093034E-01
              0.608200265212906E+00
             -0.679290000736385E+00
              0.168740696933546E+01
              0.147187922220508E+01
             -0.748234539091472E+00
              0.329301510272652E+00
              0.139473589945847E+01
             -0.405258763451465E+00
              0.410914683636108E+00
              0.597695929269890E+00
              0.779683781487885E+00
             -0.141571857618445E+01
             -0.878271682366805E-01
             -0.482037882166442E+00
             -0.123789623663130E+00
             -0.142856553624179E+00
              0.171050711723696E+00
             -0.217648762989846E+00
             -0.597719269265497E+00
              0.349363773187766E+00
              0.978812775311004E-01
              0.101789212662081E+01
             -0.910471279217608E+00
              0.913123821643758E+00
              0.984128250787837E+00
             -0.140973129289711E+00
              0.140259609230014E+01
             -0.128768534431233E+01
             -0.197953355311869E+01
             -0.168132685335337E+00
             -0.137772057818884E+00
             -0.211561856943696E-01
              0.150203322462879E+01
              0.117076514374048E-02
              0.822830372612863E+00
              0.118645975258518E+01
              0.743695258097549E+00
             -0.124622375554690E+00
              0.111524898848594E+01
             -0.322078513114143E+00
             -0.772048540751369E+00
             -0.649831030552037E+00
              0.219868158471352E+00
              0.653602878434841E+00
             -0.369307829667651E-01
              0.624990569572093E+00
              0.160490715922523E-01
              0.104113396580019E+01
              0.296952192743081E+00
              0.148494017270594E+00
              0.466329463227773E-01
              0.552805212578142E+00
              0.784903661045116E+00
              0.262662699909997E+00
             -0.714932358631120E-01
             -0.104816775114929E+01
              0.582696946525053E+00
              0.404733761749792E+00
              0.616554175522788E+00
              0.572588796789180E+00
              0.697887420960107E+00
             -0.183886674633492E+00
              0.683394652242663E+00
             -0.566285577040034E+00
             -0.353528285770128E-01
             -0.100109048942901E+01
             -0.667258802814120E+00
              0.837243185151118E+00
             -0.168116410873642E+01
              0.443440587550758E+00
              0.262702893760201E+00
              0.166319659187211E+01
             -0.199046907841355E+00
              0.640976442685177E+00
             -0.208970235295961E+00
             -0.953679894660339E+00
             -0.123104935622850E+01
             -0.317108858477606E+00
             -0.175388986401459E+01
              0.125530142350213E+00
             -0.393074871691571E+00
              0.633615848270200E+00
              0.479998475964249E+00
             -0.572434474129961E+00
             -0.599820406028567E+00
              0.824867983607768E+00
             -0.110931353852934E+01
             -0.270516338541919E+00
             -0.305856207636311E+00
              0.543252502511145E+00
              0.137500927335607E+00
              0.662445823352891E-01
             -0.275224215120304E+00
              0.102185369792197E+01
             -0.119410267839068E+01
              0.125503495785557E+00
              0.116593817890200E+01
             -0.720108736379804E+00
              0.793245555665125E-01
              0.644451606737970E-01
             -0.123250332220198E+01
             -0.695283075885735E+00
             -0.124603333614554E-01
              0.612760696521073E+00
              0.677584399820076E+00
              0.873361400719848E-01
             -0.245572737884467E+00
              0.320407260187125E+00
             -0.757136180390308E+00
             -0.117036670801852E+00
             -0.101537965057001E+01
             -0.500399522756854E+00
              0.971492003173618E+00
             -0.584527915279103E+00
              0.136791169923685E+01
             -0.463628721899585E+00
              0.626236690080487E+00
              0.489963161822730E+00
             -0.114196860999134E+01
             -0.472060217538024E+00
              0.191395083637491E+00
             -0.822054238444351E+00
             -0.803672136341437E+00
             -0.172103393606364E+01
             -0.106007722273781E+01
             -0.945288618285159E+00
             -0.878869066596184E+00
              0.405097612288108E-02
              0.500991596863168E+00
              0.247372755765122E+00
              0.559668676081339E+00
             -0.112902874396780E+01
              0.259941060026014E+00
              0.574884463822912E+00
             -0.132226832990371E+01
             -0.107123225713018E+01
             -0.750879617029065E+00
             -0.671498271758840E+00
              0.260765959263903E+00
             -0.759701143751226E-01
             -0.798878634434601E+00
              0.510574107506662E+00
             -0.457921455813210E+00
              0.100033757202258E+01
             -0.169396397655943E+01
              0.124538556174770E+01
             -0.251903767217647E+00
             -0.861124421533095E+00
             -0.531440810992837E+00
             -0.285842642484808E-01
              0.964969613583347E+00
             -0.132938985313412E+01
             -0.241983293409475E+00
             -0.313170729951730E+00
              0.764982933607520E+00
              0.153151019367398E+01
             -0.193887203496948E+01
              0.175331329946239E+01
              0.715641353465533E+00
             -0.146855358770104E+01
             -0.588796957898995E+00
              0.153164730645697E+01
              0.107423124647998E+01
             -0.418465460600896E+00
             -0.143463359514412E+00
              0.379475988131245E+00
              0.152288960844437E+01
             -0.116425063010533E+01
              0.232610384248759E+00
             -0.154281471436610E+00
              0.483156298495754E+00
             -0.134409376602356E+01
             -0.360246723579766E-01
             -0.493434945689831E+00
              0.939431590539169E+00
              0.722048158060304E+00
             -0.171911285933281E+01
             -0.899352639640623E+00
             -0.386967554324274E+00
             -0.871661951829058E+00
             -0.235439514118105E+00
             -0.322890790956193E+00
              0.883697199139291E+00
              0.834099418530542E+00
             -0.132865457421385E-01
             -0.855727034457928E+00
             -0.166005576038366E+01
              0.995878475191530E+00
             -0.867382995153145E+00
             -0.745583015929069E+00
              0.144066574383165E+00
             -0.730513432826120E+00
             -0.772233709194770E+00
             -0.618019981338992E+00
             -0.102094576221104E+01
             -0.450070828644435E+00
             -0.960791911195772E+00
              0.104502096847059E+01
              0.111235059914120E+01
             -0.229858138645763E+00
             -0.386481464420159E+00
              0.772438229264427E-01
              0.820796833010709E+00
             -0.161929055795526E+01
             -0.463936716030073E+00
              0.939116786999154E+00
              0.140160472541567E+01
             -0.167834976637966E+00
              0.200164795374171E+00
              0.102178186459839E+01
              0.288115470760668E+00
              0.657842569952605E-01
             -0.746935048099994E+00
              0.256314892744751E+00
             -0.618290745761130E+00
             -0.116020967322563E+00
             -0.418486532843370E+00
             -0.260724325631973E+00
              0.478373218377255E+00
              0.151645022694247E+01
             -0.151957508032081E+00
              0.240960429709398E-01
             -0.176571482244260E+01
             -0.352274322668109E+00
             -0.677149876905037E+00
             -0.362962454529225E-01
             -0.932679859461789E+00
              0.177478554394405E+01
              0.167513521814576E+01
              0.357039585080093E+00
             -0.474147091776370E+00
              0.364963506965361E+00
              0.363875359631176E+00
             -0.889270621556102E+00
             -0.182015747694241E+00
              0.408588747099810E+00
              0.226128443723279E+00
              0.972180862146522E+00
              0.737645001615935E+00
             -0.406950021105012E+00
              0.387377962241615E+00
             -0.187634710827462E+01
             -0.259409030898101E-01
              0.173683826196633E+01
              0.368338448525557E+00
             -0.673158300280008E-01
              0.509664728299314E+00
             -0.449828808906901E+00
              0.165180235072402E+01
             -0.413661472066166E+00
              0.146026403142715E+01
              0.739955986283110E+00
             -0.866684463430166E+00
              0.643940968951463E+00
             -0.527446685555175E+00
             -0.131137087292887E+01
             -0.157425958048093E+00
             -0.103447410960528E+01
             -0.993494294411317E+00
             -0.198392136347580E-01
              0.747805540352896E+00
             -0.291770159166624E+00
             -0.566473284502763E+00
              0.143176337376167E+00
             -0.123891199804546E+01
             -0.545305290932792E-01
             -0.167428782459566E+01
              0.997346532603427E+00
             -0.812579745695765E-01
             -0.942296094953692E+00
             -0.286172576416123E+00
              0.330593320962360E+00
             -0.751514389482878E+00
             -0.844500389213552E+00
              0.176826171949879E+01
             -0.550225219113795E+00
             -0.693094839069481E+00
              0.626837959914868E+00
             -0.448966255590145E+00
              0.112024369408608E+01
             -0.576944510152817E-01
              0.335012048041974E-01
              0.212862902514726E+01
             -0.138664089356867E+00
             -0.753090174258523E+00
             -0.952374238320658E+00
             -0.970651094652142E+00
             -0.727799785020562E+00
              0.570187505624915E+00
              0.622199558805388E+00
              0.550330080798631E+00
              0.142669713514459E+01
              0.114341254879280E+00
              0.458359334105131E+00
             -0.109118578759326E+01
              0.431474548405397E-01
             -0.276659040051344E+00
             -0.522871310656614E+00
             -0.166356959248930E+00
              0.634650454072797E+00
              0.730154565867080E+00
             -0.523737334183911E-01
              0.265440717924358E+00
              0.516918160577142E+00
              0.642115189122906E+00
             -0.454887727608951E+00
             -0.180732284455594E+00
              0.553012563232969E-02
             -0.502881439010801E+00
             -0.404725022298873E-01
             -0.808551920019637E+00
              0.152853448705161E+01
              0.117724069669049E+01
             -0.354423640731021E+00
              0.334742719067226E+00
             -0.117294253500319E+00
             -0.637288694895699E+00
              0.733391188261048E+00
             -0.177888102926255E+00
              0.713975516008701E+00
             -0.903732660825362E+00
              0.337014930455268E+00
             -0.142228869961308E+00
             -0.102464016793842E+01
             -0.448765421558605E+00
              0.456207150285530E+00
             -0.189861068384229E+01
              0.740206393114063E+00
              0.892620782546000E+00
             -0.200346783271070E+00
             -0.144456045015226E+00
             -0.733370625354448E-01
              0.525054639739347E+00
             -0.648710257046468E+00
              0.582287884537971E+00
              0.632608312013545E+00
             -0.169652529856262E+01
             -0.714323943630304E+00
              0.463389545747470E+00
             -0.248830470133271E+00
              0.972232430900743E+00
             -0.120099576539325E+01
             -0.210438429018005E+00
             -0.757920194877937E+00
             -0.252087841425203E+01
              0.152287398106770E+01
             -0.115398610816390E+01
             -0.130650301057445E+01
              0.112923341643309E+00
              0.248796186283762E+01
              0.146050635877442E+00
             -0.654708085573376E+00
             -0.300962374601657E-01
             -0.713678148596020E-01
             -0.163964409842674E+01
             -0.104905214451393E+01
              0.165937594051535E+01
             -0.244855541788768E+00
             -0.681462578805257E+00
              0.918892460491261E+00
             -0.626709328990083E+00
              0.633000233252623E+00
              0.912785001787091E+00
             -0.100113348357878E+01
             -0.550594357533129E+00
             -0.617820022254548E+00
             -0.347041353480069E+00
             -0.371355262407412E+00
             -0.379658046746144E+00
              0.388973378823522E+00
             -0.688851578366349E+00
              0.525031547477028E+00
              0.104251626638046E+01
             -0.104421272652191E+00
             -0.409986847245249E+00
              0.296702268513347E+00
              0.104451638902205E+01
              0.107520175549724E+01
              0.226612866984754E+00
             -0.225149564658357E+00
             -0.229780713946818E+00
             -0.103294620483569E+01
              0.785259181855637E+00
             -0.476437617235855E+00
              0.454519450248455E+00
             -0.238068920918375E+00
              0.488154737425242E+00
              0.335811661969493E+00
             -0.158018761642018E+01
             -0.472028264817080E+00
             -0.151143734256950E+01
             -0.793151460924287E+00
              0.822234402966644E-01
             -0.386157396370344E+00
              0.684871946352119E+00
             -0.546533454084801E+00
              0.703394826315669E-01
              0.136436823350291E+00
              0.133232258731144E+01
              0.690173596218513E+00
             -0.646939419504445E+00
             -0.477711978256519E-01
              0.298039906664025E+00
              0.708383496803730E+00
             -0.126258900671985E-01
              0.109468697849083E+01
              0.528601493932009E+00
              0.173674976183326E+01
              0.609059857755549E-01
              0.117411028309427E+01
             -0.534723242993064E+00
             -0.750955846464800E+00
              0.231918939495035E-01
              0.229701483766918E+00
              0.422791254849714E+00
             -0.428731245664920E+00
             -0.199388230912699E+00
              0.445603615515518E+00
             -0.914859420587754E+00
             -0.116941272201545E+01
              0.154388385643914E+01
             -0.114530547658930E+00
             -0.687269389481195E+00
             -0.104824298471476E+00
             -0.267331219684541E+00
              0.875708106767499E+00
              0.692448479562652E+00
             -0.385969411858406E+00
              0.882183633417633E-03
             -0.489874361371419E+00
             -0.688249076579723E+00
             -0.458078263391073E+00
             -0.188732789497033E+01
              0.431231725929884E-01
             -0.122869608852314E+01
             -0.114201543594288E+01
             -0.700355947905848E+00
              0.441777258521935E+00
             -0.735906446927024E+00
              0.479820892789032E+00
             -0.126124143046649E+01
              0.281965671923068E-02
             -0.822194933804142E+00
              0.158293606021234E+00
              0.145896471451582E+00
              0.693942756390562E+00
             -0.396365904351766E+00
             -0.361220255017102E+00
              0.625046423689455E+00
              0.113855635678471E+01
              0.627090897716131E+00
              0.212773144698108E+00
             -0.144203535684869E+01
             -0.312026120815365E+00
             -0.523777363151591E+00
             -0.117968043104211E+01
              0.819811124259862E+00
             -0.662298107251809E+00
             -0.149185216982513E+00
             -0.541260154862734E+00
             -0.189867806890852E+01
              0.108927751433070E+01
             -0.356709110463802E+00
              0.735635263125296E+00
             -0.143303225552681E+01
              0.125881716002025E+01
              0.127355808376075E+00
             -0.484095896715140E+00
              0.213342737343907E+00
             -0.368470724126065E+00
             -0.117828464710097E+01
              0.336247198567774E+00
              0.784771369522337E+00
             -0.377976413627135E-01
             -0.666397543009754E+00
             -0.314995230985135E+00
              0.409819321543560E+00
              0.725785378648700E+00
              0.118242224332228E+01
              0.420388332098826E+00
             -0.447162362129605E+00
              0.196099643241965E+01
              0.393297079508776E+00
              0.925787183388451E+00
             -0.318275040746780E+00
              0.572171770194482E+00
              0.478807717425010E+00
             -0.117722123288339E+01
             -0.433656345903340E+00
             -0.780227102989334E+00
             -0.822235628480341E+00
             -0.239868849036396E+00
             -0.147975052053770E+00
             -0.912741018121251E+00
             -0.212095877931384E+01
             -0.516215563820068E+00
              0.252074147782871E+00
              0.122151032253004E+00
              0.321467243805339E+00
              0.760818751280641E+00
              0.191347494375860E+00
              0.604297865689305E+00
             -0.836017936417621E+00
              0.816712600035967E+00
             -0.747528637199942E+00
             -0.126785098772815E+01
              0.409607934630106E+00
             -0.823091557552816E+00
             -0.758839510409119E+00
             -0.305932135522219E+01
             -0.128852277413481E+00
              0.162827681922195E+01
              0.765070236756557E+00
             -0.189474398230585E+00
             -0.211822222403275E+00
              0.880265946253308E+00
              0.122624136121011E+01
             -0.741917007864715E+00
             -0.255563993441807E+00
             -0.711112482021349E+00
             -0.628497724897027E+00
             -0.555144887150802E+00
              0.192827311988856E+00
              0.132332382966850E+01
             -0.124823669699542E+01
             -0.105274596750137E+01
              0.769345462114135E-01
             -0.301103963353433E+00
             -0.330676560473944E+00
             -0.170496242737207E+01
              0.122522594104450E+01
              0.364340452209635E+00
              0.191770357450541E+00
              0.100564247013434E+01
             -0.639182802965426E+00
              0.649339074695981E+00
              0.557646345503984E+00
              0.198781940171298E-01
             -0.161709568056847E+00
              0.146586075053663E+00
             -0.306422330566254E+00
              0.103419519266585E+01
             -0.750785953983428E+00
              0.906139624270518E+00
              0.178942405573929E+00
              0.339076937600391E+00
              0.365284296438386E+00
             -0.156034063460099E+01
              0.204741929371965E+00
             -0.128255149642182E+01
             -0.918835400812263E+00
             -0.909734648915387E+00
             -0.102966934432123E+01
             -0.116662138266008E-01
              0.376635448339923E+00
              0.962382381582543E+00
              0.132077368551768E+00
              0.288803498908640E+00
             -0.132355369954917E+01
             -0.538368876750948E+00
              0.615059102921362E+00
             -0.927629895110347E-01
             -0.779714738061035E-01
             -0.189903142420686E+00
              0.683373095258662E+00
             -0.173807134469009E+01
              0.259378757601993E+00
              0.385461610035799E+00
              0.743573054038085E+00
              0.710043602313928E+00
             -0.108494551019184E+01
              0.321722771797373E+00
              0.130345969664477E+00
              0.142452959109368E+00
              0.131456254832725E+00
             -0.367134074314836E+00
             -0.858581397405408E+00
              0.350160503213109E+00
              0.110243839965708E+01
              0.111559966561146E-01
              0.275204727862426E+00
              0.237186541741900E+00
             -0.607724088694951E+00
             -0.649340892437970E+00
             -0.237647810339374E+01
             -0.721697841832632E+00
             -0.115123990335338E+01
             -0.109833619468696E+00
             -0.132002406340540E+01
              0.144065535372100E+01
             -0.652292885263297E+00
             -0.106082640868971E+01
             -0.299603882093876E+01
              0.128967871965767E+01
              0.289908940674916E+00
              0.232385653901883E+00
             -0.116745806611186E+01
              0.709195226504367E-01
             -0.319091617643685E+00
             -0.594392459132784E+00
              0.166034400135703E+00
              0.619295708941094E+00
              0.900200862392899E-01
             -0.416383130890615E+00
              0.931898237265241E-01
              0.280337706227130E-01
              0.179839289349571E+00
             -0.129152943266560E+01
              0.142390251036002E+01
             -0.798144862279912E+00
             -0.508400691190121E+00
             -0.102738441044108E+01
             -0.213661600548321E+01
              0.848285296943174E-01
             -0.112697955180011E+01
             -0.329886501413451E+00
              0.578438773259171E+00
             -0.533499985214418E+00
             -0.246754875390998E+00
             -0.261833326976125E+00
             -0.357787835024176E+00
              0.737445621206361E-01
              0.991836548422090E+00
             -0.953430763347778E+00
              0.203180751790086E+01
             -0.495458021217668E+00
              0.607190291385325E+00
             -0.382514128035454E+00
              0.221444570053753E+00
             -0.229508243688688E+00
              0.844225946197845E+00
              0.120386343981081E+01
              0.346957468206445E+00
              0.819353215109928E+00
             -0.543793688792612E+00
             -0.157084970519991E+00
             -0.450703858053682E+00
              0.121016037424144E+01
              0.104425746364599E+01
              0.757632133517111E+00
             -0.243870171682813E+00
             -0.486873603196455E+00
              0.460203950512855E+00
             -0.566378287450509E+00
             -0.279633194660194E+00
             -0.105915342833989E+00
             -0.705276373723573E+00
              0.930651355539630E+00
             -0.221183467921243E+00
              0.688294947730154E+00
              0.450645548971830E+00
              0.279159642800889E+00
             -0.647301073328860E+00
              0.455726505413662E+00
             -0.257041455790583E+00
             -0.125474079313033E+00
             -0.144842345231426E-01
             -0.903899740137437E+00
              0.147616916403341E+01
             -0.507629287062352E+00
              0.249731606313919E-02
              0.490176452556351E+00
              0.404469254492530E+00
              0.149510572988554E+01
             -0.428938519865707E+00
              0.143266621625969E+01
              0.127392728160674E+01
             -0.177019985873765E+01
              0.128710203384761E+00
             -0.344836544969013E+00
              0.235071848449122E+00
              0.765477385115680E-01
              0.432262840419133E+00
              0.123865906955114E+01
              0.194591981412002E+01
             -0.138824267893505E+01
              0.145000206953647E+01
             -0.195641175420639E+01
             -0.168369126974388E+01
             -0.297358682020257E+00
              0.212929074444448E-01
              0.153330878890736E+01
              0.595523053013451E+00
             -0.235191719484696E+00
             -0.157631296783267E+01
              0.128598046318491E+01
             -0.775421358928989E+00
              0.467082112421160E-01
             -0.980910914167077E-01
              0.250720240566181E+01
             -0.415791263449680E+00
             -0.201652904012013E+01
              0.585108625014961E+00
             -0.312603808939192E+01
              0.246408813495457E+00
             -0.746724099067071E+00
             -0.336923417509405E+00
             -0.493092673734293E+00
             -0.114674463869045E+01
              0.690567668001022E+00
             -0.707847220524464E+00
             -0.289564237178736E+00
             -0.144230029333167E+01
             -0.748192888729058E-01
             -0.106309498195606E+01
             -0.148411355886111E+01
             -0.198726445414387E+01
              0.140879185191539E+00
             -0.732699434931304E+00
              0.235092156796552E+00
             -0.268046668379919E+00
             -0.160046817454561E+01
             -0.124522589883616E+01
             -0.109211396657948E+01
             -0.114241533781237E+01
              0.998052532026115E+00
              0.963630165730800E-01
             -0.963382534468169E+00
             -0.485322228458674E+00
             -0.539488149033325E+00
              0.812182172857100E+00
             -0.582272157856695E+00
             -0.604593411790313E-01
             -0.628156031987808E+00
             -0.761595038403803E+00
             -0.813549864932192E+00
              0.779632693879066E+00
             -0.234206091479214E+00
             -0.177800762592817E+01
              0.148122132051877E+01
              0.859548149450457E+00
              0.445518050025173E-01
             -0.157698400548846E+01
             -0.142929722889080E+01
              0.831346034380687E-01
              0.104302664422740E-03
             -0.660019998698189E+00
             -0.829605283329756E+00
              0.555363270048398E+00
             -0.907111122933566E-01
              0.524096291840959E+00
              0.912865100571663E+00
              0.669654554902285E+00
              0.459846536375907E+00
              0.411790567538767E+00
             -0.429189748046329E+00
             -0.302064263701710E+00
             -0.357654116514781E+00
             -0.745080618253414E+00
             -0.898523857202392E+00
             -0.114884539509602E+01
             -0.679095020087988E+00
             -0.250931394945264E+00
             -0.139704672502596E+01
             -0.361949024633043E+00
              0.704009830004089E+00
             -0.166981285806497E+01
              0.727727461272909E+00
              0.585974359893529E+00
             -0.140408877628500E+01
             -0.106685119938508E+01
             -0.459610436203680E+00
              0.218672890130294E+00
             -0.794310538626513E+00
              0.146040832280119E+01
              0.129277016206692E+01
             -0.148331396526511E+01
              0.764867317763008E+00
              0.693852663835714E+00
              0.188775449215370E+00
              0.345208769510702E+00
             -0.821045266139946E+00
             -0.304570265602228E+00
              0.141023560538004E+00
              0.403610154711453E+00
              0.782081832028659E+00
             -0.103749922310775E+01
             -0.232560207095366E+00
              0.299208532157780E+00
              0.225178728222344E+00
             -0.676568701697555E+00
              0.348517050493932E+00
             -0.468847032607790E+00
             -0.340433485785758E+00
             -0.332842143266818E-01
             -0.118742358063066E+01
             -0.133207502854091E-01
             -0.126732983309909E+00
             -0.310079787836839E+00
              0.343831994732550E+00
             -0.100256078968847E+01
              0.114373587589543E+01
             -0.398895728643294E+00
             -0.261014772754811E+01
             -0.165034583940926E+01
              0.658304902806075E+00
             -0.834970639346683E+00
             -0.429045593251947E+00
             -0.433688975187403E+00
             -0.379041055146268E+00
             -0.200620255974480E+01
              0.966273715657984E-02
             -0.118992588414011E+01
             -0.664080720894739E+00
              0.364919275404878E+00
              0.154616756886376E+01
              0.104304577875870E+00
              0.652139071805733E-01
              0.116700879947632E+01
             -0.114619845910360E+01
              0.517850180678531E+00
              0.107264873993213E+00
             -0.104568799663634E+01
             -0.623952985332726E+00
              0.366797014291974E+00
              0.667671281476110E-01
              0.336981124499625E+00
              0.265757752366094E+00
             -0.455719891745281E+00
             -0.653788043477601E+00
             -0.958986110959374E+00
              0.969911341507883E+00
             -0.132276282064902E+01
             -0.971552136259886E+00
              0.285133511105869E+00
             -0.160995797367369E+01
              0.465616037663580E+00
              0.116476444835001E+01
             -0.237257617577941E+00
              0.415416358444116E+00
             -0.672936527388609E+00
             -0.437736179139038E+00
              0.212751195900189E+00
              0.695083539498147E+00
             -0.699252333354070E+00
              0.414124556035639E+00
             -0.274187794531453E+00
              0.184554643996155E+00
              0.333646729312282E+00
              0.152468086698305E+00
             -0.253841861782188E+00
             -0.137479425311593E-01
              0.206690500927506E+00
              0.534607943299385E+00
             -0.136197096699423E+01
             -0.622168347251097E-01
              0.101199774395780E+01
             -0.167113487186708E+01
              0.633168871549763E+00
             -0.217406969057256E+01
             -0.233868795647074E+00
             -0.270624272960229E+00
             -0.299119326416974E-01
             -0.256049078702578E+00
             -0.534264455815667E+00
             -0.229904938329744E+00
              0.226400974965464E+00
             -0.503210803151316E+00
              0.203926222583025E+00
              0.175458842814835E+01
             -0.107709959160779E+01
             -0.483402158656488E+00
              0.823165963830864E+00
              0.390046069630030E+00
              0.828804183438983E+00
              0.408180723496843E+00
              0.285861628683062E+00
             -0.268705349838870E+00
             -0.950155229185559E+00
             -0.863642793265609E+00
             -0.713888594019003E+00
              0.131525704883635E+00
             -0.818874572741441E+00
             -0.221133790481164E+00
              0.114932409184421E+00
              0.480241780780936E+00
             -0.124180720456537E+00
              0.113975318272906E+01
             -0.130539029116990E+01
              0.221466949177795E-03
             -0.148861380876981E+00
              0.617946765704700E+00
             -0.813234865416168E+00
             -0.537882927646174E+00
              0.218336249192025E+00
              0.846257575341177E+00
              0.147417243061709E+01
              0.558181655628023E+00
              0.899775872923755E+00
             -0.464091951803587E+00
              0.120845920294425E+01
              0.121814406756517E+01
             -0.518868969198572E-02
              0.562738204784568E+00
              0.720553032553412E+00
             -0.398301350191681E+00
              0.308707302564143E+00
              0.126828528400496E+01
             -0.387475104974901E+00
             -0.103060833536702E+00
             -0.119661132323660E+01
              0.415459835088353E+00
             -0.306696220464456E+00
              0.424531010886541E+00
              0.952260520887327E-02
             -0.750542479315658E+00
              0.866813930962210E+00
              0.753616631368867E+00
             -0.623984425370882E+00
              0.337111805464074E+00
             -0.115764205061565E+01
             -0.104824039105016E+01
              0.486051167088132E+00
             -0.131283561160479E+01
             -0.681015173340692E+00
             -0.148464852430585E-02
              0.165937334034629E+01
             -0.441640531174962E+00
             -0.207693562837835E+00
             -0.414600055725918E+00
              0.214024642498061E+01
              0.361252075349938E+00
             -0.822206546358864E+00
              0.136975689820066E+01
              0.119927898735804E+01
              0.637136651168059E+00
              0.155061164243643E+01
              0.170610944922133E+01
             -0.432831041296973E-01
             -0.552844733377534E+00
             -0.456635037819549E+00
              0.538822575777778E+00
              0.756404381706551E+00
             -0.145876333136762E+00
             -0.471997598326826E+00
             -0.109056945852057E+01
             -0.375938915844410E+00
             -0.894347648524157E+00
              0.664639834581309E+00
              0.342803604021238E+00
              0.116731667219518E+01
              0.277898285630302E+00
             -0.430166033643218E+00
             -0.171378089346968E+00
              0.762928409277268E+00
              0.187858011658914E+00
              0.120586766064601E+01
              0.105428572322256E+01
             -0.148206133521525E+00
             -0.180290858900653E+00
             -0.198302891589415E+01
              0.939170015389382E+00
              0.171029561796487E-01
              0.111894464485675E+01
             -0.505965223653920E+00
             -0.129183707526871E+01
              0.375106172409873E+00
              0.141354907567144E+01
             -0.489866891521139E+00
              0.126213397568012E+01
             -0.137917413296208E+01
             -0.507933003333380E+00
             -0.166468755272104E+01
              0.291464506823960E+00
              0.652175183072190E-01
              0.190191624085645E+00
             -0.120084597875481E+01
              0.180941721700805E+01
              0.103762186159335E+01
              0.107631208287657E+00
             -0.108551821675729E+01
              0.389800117319753E+00
             -0.323188029845190E+00
             -0.301683276596949E+00
             -0.546310178429691E+00
              0.309645883248358E+00
             -0.351597843946371E+00
             -0.350978855373419E+00
              0.466037884680087E+00
              0.447543076739388E+00
             -0.174163591233353E+01
              0.377872167445394E+00
              0.127076689807160E+01
              0.812757930351996E+00
             -0.246039939470208E+00
             -0.568137875085775E-01
             -0.709103179875745E+00
              0.106725972255409E+01
              0.153334052911760E+00
             -0.438431760464617E-01
             -0.113700756770706E+00
              0.209284294549513E+01
             -0.170888273143001E+00
              0.407410916494121E+00
              0.144394780091077E+01
              0.184233548427101E+01
              0.114174171224112E+01
              0.738278973198788E+00
             -0.124565784063667E+01
             -0.895786647940441E+00
              0.704380597255018E+00
              0.115829211765450E+00
              0.588737137822570E+00
              0.228861164716728E+00
              0.125987519431288E+01
             -0.153059817980962E+01
             -0.940110308083424E+00
             -0.231695267651182E+00
             -0.168191948868840E+01
              0.379425851357217E+00
              0.921471255327444E+00
             -0.274569010007841E-01
             -0.384866002450209E+00
              0.390656986539228E+00
              0.256831048725988E+01
              0.632476225287574E+00
              0.349457557967106E+00
             -0.897745417549308E+00
             -0.109173012604859E+01
             -0.244478004211461E+00
              0.553202251737638E+00
             -0.115839135887695E+00
              0.522398781121337E+00
              0.680140929173929E+00
             -0.116765415630872E+01
              0.528695147928479E+00
              0.586734262653314E+00
              0.107340205334413E+01
             -0.201246404693602E+00
              0.123415086399604E+00
             -0.131520118803672E+00
             -0.841563301688555E+00
             -0.140901184651440E+01
              0.144135358044660E+01
             -0.206791136799540E+00
             -0.100107300125188E+01
              0.178408667787801E+00
             -0.601056075008326E+00
              0.162565699594005E+01
             -0.441398422876366E+00
             -0.731339766042358E+00
              0.725974161331878E+00
             -0.311686628382732E+00
              0.908015674282665E+00
              0.685439982482254E-01
              0.174940451337197E+01
              0.102478819129360E+01
              0.273501470825658E+00
             -0.770032508567813E+00
              0.565499347484998E+00
             -0.103711970550233E+01
             -0.683891814000601E-01
              0.124121636316478E+01
             -0.483235202932282E+00
             -0.825114598314758E+00
             -0.445887956366412E+00
              0.978582041158978E+00
              0.215010215713354E+00
             -0.154685466061933E+01
              0.665203385708343E+00
              0.956465588851056E-01
              0.228077245836195E+00
             -0.927103631760779E+00
              0.211417707031077E+00
              0.653982140886541E+00
              0.857420064195239E+00
              0.126256059787180E+01
              0.696636978544753E+00
              0.152561479442747E+00
             -0.107963348071226E+01
             -0.792762334041321E+00
             -0.120499576544304E+01
             -0.302566109600310E+00
              0.661412820418150E+00
              0.409361782662776E-02
              0.981888065007201E+00
             -0.614915869988630E+00
              0.321190116890274E+00
             -0.473956633717277E+00
             -0.518151434469642E+00
              0.113607161561087E+01
              0.942029724519191E-01
              0.120814961594735E+01
              0.110229850243581E+00
              0.356873216470118E+00
             -0.303759336055760E+00
              0.114961893727397E+01
             -0.339369861506560E+00
              0.719315833161316E-02
             -0.149371133919470E+01
             -0.124129771242842E+00
              0.132185225880101E+01
              0.121272828515630E+01
              0.490601283270251E+00
             -0.313368238107148E+00
              0.114908146050107E+00
             -0.471871516069798E+00
             -0.422232320123801E+00
              0.172793179720388E+01
              0.160434006260935E+00
             -0.577845217774884E+00
             -0.201751401143308E+01
             -0.776192565913115E+00
             -0.731583854791373E+00
             -0.115302530044799E+01
             -0.115092942522107E+01
             -0.135292493302783E+01
             -0.861598056862142E+00
             -0.494839275840945E+00
             -0.930568007367965E+00
              0.839846023587519E+00
             -0.300856830851338E+00
             -0.155484556531402E+01
              0.791218453887036E+00
             -0.660035221122219E+00
             -0.151583642327418E+01
              0.193642208639729E+01
             -0.499202666696694E+00
              0.263401274478409E+00
              0.704193011566895E+00
              0.302118041013718E+00
              0.511413625275336E+00
              0.203096508915235E-01
              0.270655508037139E-01
             -0.251152167019191E+00
             -0.142687496025605E+01
              0.206556961432581E+00
             -0.226557749840259E+01
              0.142076862640850E+01
             -0.765092043375121E+00
             -0.372864266740664E+00
             -0.407860710942231E+00
              0.459169481622103E+00
             -0.284678876853531E+00
              0.528090522525780E+00
             -0.113578210447170E+01
              0.683756487487374E+00
              0.848167159542574E+00
              0.135097764574228E+00
              0.184285420699649E+00
              0.418947908436603E+00
              0.210780974552261E+00
              0.556073281657850E+00
             -0.755167662474250E-01
             -0.148089251679938E+01
              0.183792881522445E+00
             -0.691869865300030E+00
             -0.697163761084552E-01
              0.110104447628846E+01
             -0.151776584536736E+01
              0.543803173623072E-01
              0.776269768914215E-01
              0.181678262140063E+00
              0.578159018544225E+00
             -0.236836943791140E+00
              0.160326901311192E+01
              0.666512830513187E+00
             -0.265349880487489E+00
             -0.151906333598746E+00
              0.136445862481748E+00
              0.149677424337684E+01
             -0.917347429630224E+00
             -0.192580143914559E+01
              0.558983465545548E+00
             -0.153459040196365E+00
             -0.316421750955073E+00
              0.376841053139536E+00
              0.143416305272157E+01
              0.786185032469688E+00
             -0.322523470558313E+00
             -0.104887159811513E+01
             -0.261573402126819E+00
              0.517701921711453E+00
             -0.363437888375254E+00
             -0.146502870736465E+01
             -0.203679644544363E+00
             -0.189860730898913E+01
             -0.100455950117408E+01
              0.169926485993293E+01
             -0.101599112425994E+01
             -0.139433476890283E+01
             -0.101785519264172E+01
             -0.783101306034286E+00
              0.666229173397006E+00
              0.164655232816048E+01
             -0.212444565519233E+00
              0.503552683326214E+00
             -0.409685145962598E+00
             -0.130827245548299E+01
              0.996123507017903E+00
             -0.944039793082695E+00
              0.451290844389513E+00
              0.523671432701826E+00
             -0.326337379904661E+00
              0.688422116868480E+00
              0.723149159715304E+00
              0.237132333111499E+01
             -0.172437412864562E+00
             -0.112807035839328E+01
             -0.128089918985817E+01
             -0.387582777313152E+00
             -0.858410431911216E+00
              0.175202704572339E+01
             -0.868865494593870E+00
              0.199327111154619E+00
              0.213165734164846E-01
             -0.354504137832279E+00
             -0.168229049632741E+01
             -0.126923271547022E+00
              0.193814827275665E+01
              0.459248877876874E+00
              0.137621818167734E+00
             -0.116299959228942E+01
             -0.103446150382492E+01
             -0.377513824208111E+00
              0.854970422357596E+00
             -0.525343693478208E+00
              0.191417734510865E+01
             -0.943622466608204E+00
              0.384287772374133E+00
             -0.217191388947063E+00
             -0.116406257126373E+01
              0.139831692024405E+00
             -0.109657855181842E+01
             -0.141739333617741E+01
              0.236609405687936E+00
              0.231461820058976E-01
              0.944087723643652E+00
              0.541332635287306E+00
             -0.680140564329345E+00
              0.411220571744099E+00
             -0.173703860417630E+01
             -0.885292614208883E+00
              0.178699689322891E+01
              0.362036696906003E-01
             -0.597727893426878E-01
             -0.453998521480983E+00
             -0.110032042608132E-01
             -0.250626220178125E+00
              0.180425510946304E+01
              0.797262660333998E+00
             -0.138509351050168E+00
              0.412169440427856E-01
             -0.719156208506931E+00
             -0.217403184756456E+00
             -0.117312569412682E+01
              0.101121096575344E+01
              0.130769672364398E+00
              0.127303660671876E+00
              0.381162130022600E+00
             -0.293958997922985E+00
             -0.456012164977623E+00
              0.216353820171268E+00
             -0.217682022364655E+01
             -0.178551991841450E+00
             -0.197505015811500E+00
             -0.111237993043009E+00
              0.901201110911474E+00
              0.125885151771786E+01
              0.349821419790985E+00
             -0.178540228966760E+01
              0.121855502098835E+01
             -0.465348799741538E+00
             -0.712726604911750E+00
             -0.168488966449289E+01
             -0.487053328921360E+00
              0.124484790969837E+01
              0.672127470176587E+00
              0.336774174811983E+00
              0.696794619689210E+00
             -0.107512025807713E+01
             -0.966606275117274E+00
              0.122697205746166E+01
              0.803911380670886E+00
              0.885730747382648E+00
              0.205827179052826E+00
              0.216389820152092E+00
              0.101087332238762E+01
              0.190160181994512E+01
             -0.305685375367514E+00
              0.798547073423599E+00
             -0.628492417537242E+00
             -0.853328481946401E+00
             -0.679645398198147E+00
             -0.666892626924420E+00
             -0.275179673479402E+00
             -0.903825300955123E+00
             -0.350568337149928E+00
             -0.246264694542272E+01
              0.595543592952590E+00
              0.564517332863720E+00
             -0.690520409921780E-01
             -0.706019558411876E+00
             -0.342158698421557E+00
             -0.110013192868688E+01
              0.931378409395212E-01
              0.151818895801511E+01
             -0.352165167013297E+00
             -0.370664237128829E+00
              0.364617333582617E+00
             -0.988769307986143E+00
              0.164059748785185E+01
              0.294293234069249E+00
              0.836181291569495E-01
              0.998363054475478E+00
             -0.146324931266514E+00
              0.113902285516580E+01
              0.404353065012605E+00
             -0.717171100872660E-02
              0.266883227978366E+00
             -0.230596556980042E+00
              0.126455065664024E+01
              0.137139301642418E+00
              0.434134272068547E+00
             -0.173168591012330E+00
              0.205809741838886E+00
             -0.181564684618765E+01
             -0.677572721665230E+00
             -0.965871787535903E+00
              0.953388726272871E+00
             -0.695935089853006E+00
             -0.104072065570490E+01
              0.116388484853794E+01
             -0.266201182535500E+00
              0.783198774810270E+00
             -0.171156767439721E+01
              0.316902689339956E+00
              0.615098336489699E-01
              0.134806600721731E+00
             -0.275470938184848E+00
             -0.126356236456942E+00
              0.972766546433570E+00
              0.573529121632088E-01
             -0.104244296054414E+01
             -0.430775993612019E+00
              0.330558720699543E+00
             -0.221424969260621E+01
             -0.165244945377604E+01
              0.616148456760524E-02
              0.332186402467451E+00
             -0.101150345198699E+01
              0.301388587643530E-01
              0.195263456801163E+01
              0.542161349644617E+00
             -0.102710776086969E+01
              0.146193164411773E+00
             -0.206983283857203E+00
              0.263681623674524E+00
             -0.704666917923344E+00
              0.460291543071553E+00
              0.444306827252964E+00
             -0.174843404594203E+00
              0.218142253678515E+01
             -0.497219693286008E-01
             -0.590226422679327E+00
              0.645013939200521E+00
              0.818567116909481E+00
             -0.604699603292412E+00
             -0.127353119545363E-01
              0.189528993768981E+01
             -0.200836554985138E-01
              0.992166867667556E+00
              0.325972461295716E+00
             -0.116056836695032E+00
             -0.263582195973621E+00
              0.892014598172089E+00
             -0.116010567101061E+01
             -0.333690867638690E-01
             -0.399626742453108E+00
             -0.769067604530665E+00
              0.210219230617394E+00
              0.494293833510709E+00
             -0.606089655386501E-01
             -0.336255172404236E-01
             -0.813318967300488E+00
              0.268637709013369E+00
             -0.144524449871026E-01
             -0.404330234268169E+00
             -0.382333074634290E+00
              0.298350331858328E+00
              0.163434967341125E-02
             -0.754474223478333E+00
             -0.208693408729507E+01
              0.130695450677880E+00
              0.253967999132582E+00
             -0.967388144656217E+00
             -0.495280392918342E+00
              0.159278546178945E+01
              0.274146783274803E+00
              0.889517844497705E+00
              0.237497702165700E+00
              0.791206285217074E+00
              0.407272788581547E-01
             -0.764745029104274E+00
             -0.275697087956972E+00
              0.906355412716424E-01
              0.621822316736525E+00
              0.141432315229813E+01
              0.947990998471989E+00
              0.709443180166707E-01
              0.218214107829430E+00
              0.116841560614117E+01
              0.558251934421282E+00
             -0.131124163158348E+01
             -0.538046440726124E+00
              0.195831828589755E+00
              0.204900488954125E+00
              0.482646848543107E+00
             -0.975412069678468E+00
              0.732010836079542E-01
              0.820854483331138E+00
              0.933742352985853E+00
             -0.807310931457344E+00
              0.913137828557389E-01
             -0.519718410046242E-01
             -0.423075188956725E+00
             -0.452809003271163E+00
             -0.196869412897639E+00
             -0.283100960852293E+00
              0.233108454716720E+00
              0.813399372865496E+00
             -0.633810391384683E+00
              0.156174915008216E+01
              0.645641802110950E+00
              0.526056094632981E+00
              0.732751984841426E+00
              0.446380355286313E+00
              0.698521929492584E+00
              0.107074666230029E+01
             -0.921617510515763E+00
              0.121485272157977E+01
             -0.220928425832291E+01
              0.604796591984026E+00
             -0.202050269171106E+01
              0.154213568250153E+01
              0.153145369912360E+01
             -0.152801370307387E+00
             -0.892203866745328E+00
             -0.833544361479269E+00
             -0.101317558736286E+01
             -0.127388891239184E+01
              0.105958654084839E+01
              0.826690809966015E+00
              0.469929512913321E+00
              0.456552405006667E+00
              0.893622896077022E+00
             -0.796480396331074E+00
             -0.264845538671254E+00
              0.101445283587327E+01
             -0.238400382879570E+00
              0.952830723157540E+00
              0.151542585683605E+01
             -0.717303600370345E-01
             -0.147057506996070E+01
              0.134917094606262E+00
              0.289486353114385E-01
             -0.206572858361527E+00
              0.660925546661773E-01
             -0.123741752519430E+01
             -0.115483943406875E+00
              0.286951558310052E+00
              0.304366454066725E+00
              0.975354121742967E+00
             -0.825063797512885E+00
              0.944384307071271E+00
             -0.727635526458470E+00
              0.549478168807156E+00
              0.858665434954963E+00
 
 BEEF-vdW xc energy contributions
           1 :   -13.3195047806848     
           2 :    10.8287444279551     
           3 :   -7.23572538258819     
           4 :    3.88014169470251     
           5 :   -1.42355501060993     
           6 :  -1.188574916835350E-002
           7 :   0.596559564178403     
           8 :  -0.652246733788949     
           9 :   0.512475021026306     
          10 :  -0.412343979762280     
          11 :   0.425090549043269     
          12 :  -0.497699078663834     
          13 :   0.535843877498049     
          14 :  -0.482741520799950     
          15 :   0.336008962816937     
          16 :  -0.137671304222254     
          17 :  -5.077407999394801E-002
          18 :   0.172246139492266     
          19 :  -0.200453644774328     
          20 :   0.147859914172486     
          21 :  -5.771503878453110E-002
          22 :  -2.371260658952501E-002
          23 :   6.935091572773366E-002
          24 :  -8.022948597497326E-002
          25 :   7.494225858965997E-002
          26 :  -7.296888347369901E-002
          27 :   7.896901927429134E-002
          28 :  -8.508325694744912E-002
          29 :   8.224929191660557E-002
          30 :  -7.008501455121774E-002
          31 :   -1.83431546701429     
          32 :   -1.12387299594559     

     Writing output data file ./pwscf.save/
 
     init_run     :     67.52s CPU     70.38s WALL (       1 calls)
     electrons    :    579.94s CPU    629.48s WALL (       1 calls)
     forces       :     28.05s CPU     30.50s WALL (       1 calls)

     Called by init_run:
     wfcinit      :      2.30s CPU      2.38s WALL (       1 calls)
     potinit      :     56.30s CPU     58.47s WALL (       1 calls)
     hinit0       :      7.26s CPU      7.41s WALL (       1 calls)

     Called by electrons:
     c_bands      :    105.14s CPU    106.19s WALL (      16 calls)
     sum_band     :     44.04s CPU     50.42s WALL (      16 calls)
     v_of_rho     :    340.24s CPU    372.99s WALL (      17 calls)
     newd         :     16.36s CPU     22.80s WALL (      17 calls)
     PAW_pot      :      2.14s CPU      2.15s WALL (      17 calls)
     mix_rho      :    122.49s CPU    127.76s WALL (      16 calls)
     vdW_kernel   :     33.46s CPU     33.47s WALL (       1 calls)

     Called by c_bands:
     init_us_2    :      1.52s CPU      1.56s WALL (      33 calls)
     regterg      :    101.75s CPU    102.79s WALL (      16 calls)

     Called by *egterg:
     rdiaghg      :      0.03s CPU      0.03s WALL (     146 calls)
     h_psi        :     90.57s CPU     90.60s WALL (     147 calls)
     s_psi        :      2.70s CPU      2.70s WALL (     147 calls)
     g_psi        :      0.31s CPU      0.31s WALL (     130 calls)

     Called by h_psi:
     h_psi:calbec :      2.24s CPU      2.24s WALL (     147 calls)
     vloc_psi     :     85.07s CPU     85.08s WALL (     147 calls)
     add_vuspsi   :      2.78s CPU      2.78s WALL (     147 calls)

     General routines
     calbec       :      2.70s CPU      2.70s WALL (     167 calls)
     fft          :    297.83s CPU    297.86s WALL (    2932 calls)
     ffts         :     53.52s CPU     53.52s WALL (     535 calls)
     fftw         :     80.52s CPU     80.52s WALL (     802 calls)
 
     Parallel routines
 
     PWSCF        :  20m26.76s CPU  22m25.29s WALL

 
   This run was terminated on:  10: 5:12   4Jan2023            

=------------------------------------------------------------------------------=
   JOB DONE.
=------------------------------------------------------------------------------=
