
     Program PWSCF v.6.7MaX starts on  4Jan2023 at  9:38:27 

     This program is part of the open-source Quantum ESPRESSO suite
     for quantum simulation of materials; please cite
         "P. Giannozzi et al., J. Phys.:Condens. Matter 21 395502 (2009);
         "P. Giannozzi et al., J. Phys.:Condens. Matter 29 465901 (2017);
          URL http://www.quantum-espresso.org", 
     in publications or presentations arising from this work. More details at
     http://www.quantum-espresso.org/quote

     Parallel version (MPI), running on     1 processors

     MPI processes distributed on     1 nodes
     Reading input from chchc-gas-ensemble.in
Warning: card &CELL ignored
Warning: card / ignored

     Current dimensions of program PWSCF are:
     Max number of different atomic species (ntypx) = 10
     Max number of k-points (npk) =  40000
     Max angular momentum in pseudopotentials (lmaxx) =  3
     file C.pbe-n-kjpaw_psl.1.0.0.UPF: wavefunction(s)  2S 2P renormalized
     file H.pbe-kjpaw_psl.1.0.0.UPF: wavefunction(s)  1S renormalized

     **************************************************************************
     Initializing libbeef V0.1.2 with the BEEF-vdW functional.
     Citation: Wellendorff et al., PRB 85, 235149 (2012).
     **************************************************************************


     IMPORTANT: XC functional enforced from input :
     Exchange-correlation= BEEF-VDW
                           (   1   4  43  14   2   0   0)
     Any further DFT definition will be discarded
     Please, verify this is what you really want


     gamma-point specific algorithms are used

     Subspace diagonalization in iterative solution of the eigenvalue problem:
     a serial algorithm will be used

 
     G-vector sticks info
     --------------------
     sticks:   dense  smooth     PW     G-vecs:    dense   smooth      PW
     Sum       33057   33057   8251              4571067  4571067  571309
 


     bravais-lattice index     =            0
     lattice parameter (alat)  =      42.7089  a.u.
     unit-cell volume          =   72802.1054 (a.u.)^3
     number of atoms/cell      =            5
     number of atomic types    =            2
     number of electrons       =        14.00
     number of Kohn-Sham states=           11
     kinetic-energy cutoff     =      60.0000  Ry
     charge density cutoff     =     240.0000  Ry
     scf convergence threshold =      1.0E-06
     mixing beta               =       0.7000
     number of iterations used =            8  local-TF  mixing
     Exchange-correlation= BEEF-VDW
                           (   1   4  43  14   2   0   0)

     celldm(1)=  42.708929  celldm(2)=   0.000000  celldm(3)=   0.000000
     celldm(4)=   0.000000  celldm(5)=   0.000000  celldm(6)=   0.000000

     crystal axes: (cart. coord. in units of alat)
               a(1) = (   1.000000   0.000000   0.000000 )  
               a(2) = (   0.000000   0.948908   0.000000 )  
               a(3) = (   0.000000   0.000000   0.984835 )  

     reciprocal axes: (cart. coord. in units 2 pi/alat)
               b(1) = (  1.000000  0.000000  0.000000 )  
               b(2) = (  0.000000  1.053843  0.000000 )  
               b(3) = (  0.000000  0.000000  1.015398 )  


     PseudoPot. # 1 for C  read from file:
     /users/bkreitz1/quantum-espresso/potentials/C.pbe-n-kjpaw_psl.1.0.0.UPF
     MD5 check sum: a169b0ebad56f5ec0d79c4633f80bf22
     Pseudo is Projector augmented-wave + core cor, Zval =  4.0
     Generated using 'atomic' code by A. Dal Corso  v.6.7MaX
     Shape of augmentation charge: PSQ
     Using radial grid of 1073 points,  4 beta functions with: 
                l(1) =   0
                l(2) =   0
                l(3) =   1
                l(4) =   1
     Q(r) pseudized with 0 coefficients 


     PseudoPot. # 2 for H  read from file:
     /users/bkreitz1/quantum-espresso/potentials/H.pbe-kjpaw_psl.1.0.0.UPF
     MD5 check sum: ae98473e6dc62675f0d0baffdab24f65
     Pseudo is Projector augmented-wave, Zval =  1.0
     Generated using 'atomic' code by A. Dal Corso  v.6.7MaX
     Shape of augmentation charge: PSQ
     Using radial grid of  929 points,  2 beta functions with: 
                l(1) =   0
                l(2) =   0
     Q(r) pseudized with 0 coefficients 


     atomic species   valence    mass     pseudopotential
        C              4.00    12.01100     C ( 1.00)
        H              1.00     1.00800     H ( 1.00)

     No symmetry found



   Cartesian axes

     site n.     atom                  positions (alat units)
         1           C   tau(   1) = (   0.4828142   0.4665864   0.4846638  )
         2           C   tau(   2) = (   0.5322255   0.4915247   0.5041721  )
         3           C   tau(   3) = (   0.5242859   0.4868635   0.4418222  )
         4           H   tau(   4) = (   0.4408165   0.4457371   0.4935576  )
         5           H   tau(   5) = (   0.5596336   0.5055716   0.5411097  )

     number of k points=     1  Gaussian smearing, width (Ry)=  0.0050
                       cart. coord. in units 2pi/alat
        k(    1) = (   0.0000000   0.0000000   0.0000000), wk =   2.0000000

     Dense  grid:  2285534 G-vectors     FFT dimensions: ( 216, 200, 216)

     Estimated max dynamical RAM per process >       3.51 GB

     Initial potential from superposition of free atoms

     starting charge   13.99986, renormalised to   14.00000

     negative rho (up, down):  8.988E-03 0.000E+00


     %%%%%%%%%%%%%%%%%%%%%%%%%%%%%%%%%%%%%%%%%%%%%%%%%%%%%%%%%%%%%%%%%%%%%%%%
     %                                                                      %
     % You are using vdW-DF, which was implemented by the Thonhauser group. %
     % Please cite the following two papers that made this development      %
     % possible and the two reviews that describe the various versions:     %
     %                                                                      %
     %   T. Thonhauser et al., PRL 115, 136402 (2015).                      %
     %   T. Thonhauser et al., PRB 76, 125112 (2007).                       %
     %   K. Berland et al., Rep. Prog. Phys. 78, 066501 (2015).             %
     %   D.C. Langreth et al., J. Phys.: Condens. Matter 21, 084203 (2009). %
     %                                                                      %
     %                                                                      %
     % If you are calculating the stress with vdW-DF, please also cite:     %
     %                                                                      %
     %   R. Sabatini et al., J. Phys.: Condens. Matter 24, 424209 (2012).   %
     %                                                                      %
     %%%%%%%%%%%%%%%%%%%%%%%%%%%%%%%%%%%%%%%%%%%%%%%%%%%%%%%%%%%%%%%%%%%%%%%%


     Starting wfcs are   14 randomized atomic wfcs
     Checking if some PAW data can be deallocated... 

     total cpu time spent up to now is       67.7 secs

     Self-consistent Calculation

     iteration #  1     ecut=    60.00 Ry     beta= 0.70
     Davidson diagonalization with overlap
     ethr =  1.00E-02,  avg # of iterations =  5.0

     negative rho (up, down):  8.148E-03 0.000E+00

     total cpu time spent up to now is      102.7 secs

     total energy              =     -59.13890789 Ry
     estimated scf accuracy    <       0.61448496 Ry

     iteration #  2     ecut=    60.00 Ry     beta= 0.70
     Davidson diagonalization with overlap
     ethr =  4.39E-03,  avg # of iterations =  1.0

     negative rho (up, down):  1.163E-02 0.000E+00

     total cpu time spent up to now is      135.9 secs

     total energy              =     -59.04856549 Ry
     estimated scf accuracy    <       0.19100265 Ry

     iteration #  3     ecut=    60.00 Ry     beta= 0.70
     Davidson diagonalization with overlap
     ethr =  1.36E-03,  avg # of iterations = 10.0

     negative rho (up, down):  1.910E-02 0.000E+00

     total cpu time spent up to now is      172.8 secs

     total energy              =     -59.08071515 Ry
     estimated scf accuracy    <       0.02337826 Ry

     iteration #  4     ecut=    60.00 Ry     beta= 0.70
     Davidson diagonalization with overlap
     ethr =  1.67E-04,  avg # of iterations =  5.0

     negative rho (up, down):  4.722E-02 0.000E+00

     total cpu time spent up to now is      208.4 secs

     total energy              =     -59.07724836 Ry
     estimated scf accuracy    <       0.01367953 Ry

     iteration #  5     ecut=    60.00 Ry     beta= 0.70
     Davidson diagonalization with overlap
     ethr =  9.77E-05,  avg # of iterations =  5.0

     negative rho (up, down):  7.011E-02 0.000E+00

     total cpu time spent up to now is      244.1 secs

     total energy              =     -59.07755298 Ry
     estimated scf accuracy    <       0.00525244 Ry

     iteration #  6     ecut=    60.00 Ry     beta= 0.70
     Davidson diagonalization with overlap
     ethr =  3.75E-05,  avg # of iterations =  4.0

     negative rho (up, down):  1.043E-01 0.000E+00

     total cpu time spent up to now is      280.1 secs

     total energy              =     -59.07827643 Ry
     estimated scf accuracy    <       0.00184585 Ry

     iteration #  7     ecut=    60.00 Ry     beta= 0.70
     Davidson diagonalization with overlap
     ethr =  1.32E-05,  avg # of iterations =  3.0

     negative rho (up, down):  8.471E-02 0.000E+00

     total cpu time spent up to now is      316.1 secs

     total energy              =     -59.07766192 Ry
     estimated scf accuracy    <       0.00101830 Ry

     iteration #  8     ecut=    60.00 Ry     beta= 0.70
     Davidson diagonalization with overlap
     ethr =  7.27E-06,  avg # of iterations =  4.0

     negative rho (up, down):  7.267E-02 0.000E+00

     total cpu time spent up to now is      351.4 secs

     total energy              =     -59.07743013 Ry
     estimated scf accuracy    <       0.00033146 Ry

     iteration #  9     ecut=    60.00 Ry     beta= 0.70
     Davidson diagonalization with overlap
     ethr =  2.37E-06,  avg # of iterations =  7.0

     negative rho (up, down):  4.663E-02 0.000E+00

     total cpu time spent up to now is      386.7 secs

     total energy              =     -59.07696583 Ry
     estimated scf accuracy    <       0.00023760 Ry

     iteration # 10     ecut=    60.00 Ry     beta= 0.70
     Davidson diagonalization with overlap
     ethr =  1.70E-06,  avg # of iterations =  6.0

     negative rho (up, down):  3.562E-02 0.000E+00

     total cpu time spent up to now is      421.8 secs

     total energy              =     -59.07694271 Ry
     estimated scf accuracy    <       0.00006378 Ry

     iteration # 11     ecut=    60.00 Ry     beta= 0.70
     Davidson diagonalization with overlap
     ethr =  4.56E-07,  avg # of iterations =  5.0

     negative rho (up, down):  2.549E-02 0.000E+00

     total cpu time spent up to now is      456.5 secs

     total energy              =     -59.07697268 Ry
     estimated scf accuracy    <       0.00003079 Ry

     iteration # 12     ecut=    60.00 Ry     beta= 0.70
     Davidson diagonalization with overlap
     ethr =  2.20E-07,  avg # of iterations =  2.0

     negative rho (up, down):  2.132E-02 0.000E+00

     total cpu time spent up to now is      490.3 secs

     total energy              =     -59.07698303 Ry
     estimated scf accuracy    <       0.00001399 Ry

     iteration # 13     ecut=    60.00 Ry     beta= 0.70
     Davidson diagonalization with overlap
     ethr =  9.99E-08,  avg # of iterations =  2.0

     negative rho (up, down):  1.790E-02 0.000E+00

     total cpu time spent up to now is      523.9 secs

     total energy              =     -59.07698972 Ry
     estimated scf accuracy    <       0.00000544 Ry

     iteration # 14     ecut=    60.00 Ry     beta= 0.70
     Davidson diagonalization with overlap
     ethr =  3.88E-08,  avg # of iterations =  2.0

     negative rho (up, down):  1.654E-02 0.000E+00

     total cpu time spent up to now is      557.6 secs

     total energy              =     -59.07699377 Ry
     estimated scf accuracy    <       0.00000160 Ry

     iteration # 15     ecut=    60.00 Ry     beta= 0.70
     Davidson diagonalization with overlap
     ethr =  1.15E-08,  avg # of iterations =  1.0

     negative rho (up, down):  1.586E-02 0.000E+00

     total cpu time spent up to now is      582.9 secs

     End of self-consistent calculation

          k = 0.0000 0.0000 0.0000 (285655 PWs)   bands (ev):

   -23.4763 -15.1989 -14.6887 -11.3263  -9.8622  -8.3022  -5.7450  -2.3459
    -1.8131  -0.8750  -0.5386

     the Fermi energy is    -3.3038 ev

!    total energy              =     -59.07699418 Ry

     total all-electron energy =      -232.369277 Ry
     estimated scf accuracy    <       0.00000033 Ry
     smearing contrib. (-TS)   =      -0.00000000 Ry
     internal energy E=F+TS    =     -59.07699418 Ry

     The total energy is F=E-TS. E is the sum of the following terms:
     one-electron contribution =    -127.96873601 Ry
     hartree contribution      =      65.58866865 Ry
     xc contribution           =     -15.61681410 Ry
     ewald contribution        =      38.58524603 Ry
     one-center paw contrib.   =     -19.66535874 Ry

     convergence has been achieved in  15 iterations

     negative rho (up, down):  1.586E-02 0.000E+00

     Forces acting on atoms (cartesian axes, Ry/au):

     atom    1 type  1   force =     0.00015721   -0.00067767    0.00112398
     atom    2 type  1   force =     0.00529007    0.00227699    0.00824362
     atom    3 type  1   force =     0.00038384    0.00160530    0.00009536
     atom    4 type  2   force =    -0.00029283   -0.00039590   -0.00032405
     atom    5 type  2   force =    -0.00553829   -0.00280872   -0.00913892

     Total force =     0.015101     Total SCF correction =     0.000130

     negative rho (up, down):  1.586E-02 0.000E+00

     negative rho (up, down):  1.586E-02 0.000E+00

     negative rho (up, down):  1.586E-02 0.000E+00

     negative rho (up, down):  1.586E-02 0.000E+00

     negative rho (up, down):  1.586E-02 0.000E+00

     negative rho (up, down):  1.586E-02 0.000E+00

     negative rho (up, down):  1.586E-02 0.000E+00

     negative rho (up, down):  1.586E-02 0.000E+00

     negative rho (up, down):  1.586E-02 0.000E+00

     negative rho (up, down):  1.586E-02 0.000E+00

     negative rho (up, down):  1.586E-02 0.000E+00

     negative rho (up, down):  1.586E-02 0.000E+00

     negative rho (up, down):  1.586E-02 0.000E+00

     negative rho (up, down):  1.586E-02 0.000E+00

     negative rho (up, down):  1.586E-02 0.000E+00

     negative rho (up, down):  1.586E-02 0.000E+00

     negative rho (up, down):  1.586E-02 0.000E+00

     negative rho (up, down):  1.586E-02 0.000E+00

     negative rho (up, down):  1.586E-02 0.000E+00

     negative rho (up, down):  1.586E-02 0.000E+00

     negative rho (up, down):  1.586E-02 0.000E+00

     negative rho (up, down):  1.586E-02 0.000E+00

     negative rho (up, down):  1.586E-02 0.000E+00

     negative rho (up, down):  1.586E-02 0.000E+00

     negative rho (up, down):  1.586E-02 0.000E+00

     negative rho (up, down):  1.586E-02 0.000E+00

     negative rho (up, down):  1.586E-02 0.000E+00

     negative rho (up, down):  1.586E-02 0.000E+00

     negative rho (up, down):  1.586E-02 0.000E+00

     negative rho (up, down):  1.586E-02 0.000E+00

     negative rho (up, down):  1.586E-02 0.000E+00

     negative rho (up, down):  1.586E-02 0.000E+00

     negative rho (up, down):  1.586E-02 0.000E+00

     negative rho (up, down):  1.586E-02 0.000E+00
 BEEFens 2000 ensemble energies
             -0.118494146009629E+01
             -0.431341813576176E-01
             -0.233387284013331E+00
              0.804733764673234E+00
             -0.384148686429084E+00
             -0.276416036762214E+00
             -0.867918864365887E+00
             -0.177259838022288E+01
             -0.609137469889047E+00
             -0.659519627796225E+00
             -0.668984160252781E+00
              0.125578645822292E+00
              0.668130049139939E-01
             -0.990162045727536E-01
              0.676028056532059E-01
              0.859718928004598E+00
             -0.345442776312078E+00
             -0.156052212003087E+00
              0.448001860564901E+00
             -0.201404097617974E+01
              0.103063523440249E+01
             -0.346860148889702E+00
             -0.108889939471397E+00
             -0.157296034354537E+00
              0.568326328114743E-01
             -0.748381976520163E-01
              0.159775624160999E+01
             -0.448980200570776E+00
             -0.129986979100202E+00
             -0.103199670244166E+01
              0.122631426585762E+01
             -0.544564397820730E-01
             -0.752703460089892E+00
              0.315746008635773E+00
             -0.532195799948685E-01
              0.545681109825763E+00
              0.399780717019684E-01
             -0.131506431548032E-01
              0.716514803489600E+00
             -0.179501975579914E+01
              0.997797547150719E+00
              0.223032802418818E+00
             -0.243848581165053E+00
             -0.530978337477857E+00
              0.222832852522933E+00
             -0.340214167989362E+00
              0.925436544084281E+00
              0.639363653094161E+00
             -0.330769279790042E+00
             -0.586870168447655E+00
             -0.570940210940590E+00
             -0.686514494351100E+00
              0.428265687294736E+00
             -0.945784955432850E+00
              0.299043704824198E+00
              0.112057828117788E+01
              0.138777916620090E+01
              0.581925888172152E+00
              0.288368477562272E+00
              0.600485706288891E+00
              0.166657178765929E+01
              0.281711446745556E+00
             -0.997130894085239E+00
             -0.165470029089049E+00
             -0.540226865709292E+00
              0.112666372967577E+01
             -0.128949867395274E+01
             -0.108224710531543E+01
             -0.633940693279350E+00
             -0.379960603361102E+00
             -0.688783995964402E+00
              0.506954913162323E+00
              0.243632861024455E+00
              0.294464222472823E+00
             -0.707741100675898E+00
             -0.643656893869129E+00
             -0.108169279846105E+01
              0.556584477696632E+00
             -0.634972717711991E+00
              0.596470960841514E+00
             -0.164731087675053E+00
             -0.504518156189265E+00
             -0.895697793592882E+00
             -0.270916975626831E+00
             -0.306148215703052E+00
             -0.252089270581008E+00
              0.706665057299931E+00
              0.144466942512740E+01
             -0.840083967522335E+00
             -0.143696364457709E+01
             -0.333992821217880E+00
              0.197020643281890E+01
             -0.102656139184231E+01
              0.560160609217142E+00
             -0.216158780735620E+00
             -0.106598605175165E+01
              0.496621774244495E+00
              0.539763001628258E+00
             -0.278522025507328E+00
              0.520641363774420E+00
             -0.447981750400402E+00
             -0.113214499378160E+01
              0.185009010870021E+01
              0.823964511016095E+00
              0.368257454731668E+00
              0.233725522740400E+00
              0.445222832418904E+00
              0.147731003114474E+01
             -0.485213558305814E+00
              0.507123081870118E-01
             -0.250782459157685E+01
              0.302903510717843E+00
             -0.120100915963340E+01
              0.228406846166751E+00
              0.393337590518984E+00
             -0.684219813130891E+00
             -0.903211905530717E+00
              0.407344590492613E-01
             -0.572011537952871E+00
              0.812038354330474E+00
             -0.827235112773771E+00
             -0.166355407978307E+00
             -0.700336776104295E+00
             -0.597850393254244E-01
              0.103240607243580E+00
              0.440619503377100E+00
             -0.324846749889929E-02
             -0.106719546156104E+00
              0.122971096706187E+01
              0.167793503274449E+01
              0.908413412563800E+00
              0.115971651346105E+01
             -0.238661621705259E+00
              0.143534420273620E+00
              0.928686007263043E+00
              0.114976577685878E+00
             -0.138942914147772E+01
             -0.816099775195944E+00
             -0.894751762766622E+00
             -0.533594036200523E+00
              0.470570372025513E+00
             -0.222172947137206E+01
             -0.224724801454634E+00
              0.852407996406448E+00
             -0.734553435479875E+00
             -0.522794713187011E+00
              0.108170450917690E+01
              0.891161949154498E+00
             -0.517072682184343E+00
              0.630245482393888E+00
             -0.459615133876758E+00
              0.683100805734280E+00
              0.114250665498950E+00
              0.180004293233115E+00
             -0.148804708632195E+01
             -0.867799406828874E+00
             -0.157275717554942E+00
             -0.693476005228864E-01
             -0.777251073853884E+00
              0.203854554218056E+01
             -0.195902307274865E+00
             -0.490949220704436E+00
              0.692044898995340E+00
             -0.800785275210755E+00
             -0.700297250771043E+00
              0.609642812439988E+00
              0.231798661957085E+00
              0.206582793079134E+00
              0.313190808233579E+00
             -0.194270511974826E+00
              0.172356728321762E+00
              0.105526644796366E+01
             -0.473563043332449E+00
              0.406728856195480E+00
              0.161855524458984E+01
              0.577784183281777E+00
             -0.686018100950250E-01
             -0.386923049926903E+00
              0.283365974624264E+01
             -0.465252092099364E+00
              0.725837609424893E+00
              0.569859237160539E+00
              0.485103330351517E+00
              0.168182495170413E+01
              0.834578056801850E+00
             -0.876106789533350E-01
              0.467402856995311E+00
              0.955345359658466E+00
              0.688203864923956E+00
             -0.111356935824190E+01
              0.172791984674142E+01
             -0.155929633092180E+01
             -0.177710010611042E+00
              0.101335948870054E+01
              0.342107571386575E+00
              0.112131930992057E+00
              0.478218511130692E+00
              0.287863396265950E+00
              0.583113181942637E+00
             -0.113625103634529E+01
              0.620425803250093E-01
             -0.426442761294561E+00
             -0.954438787334302E-01
             -0.690907986077214E-01
             -0.245736621347537E+00
             -0.118999048154197E+00
              0.151103768838112E+01
             -0.927748012193961E-01
             -0.513731759319960E+00
             -0.217289198718984E-01
              0.264286102059470E+00
             -0.117052959546341E+01
             -0.104161885053973E+01
             -0.617439873711198E+00
             -0.114654346563020E+01
             -0.345198280268006E+00
             -0.730333575707458E+00
              0.319835818990403E+00
              0.490623374558159E-01
             -0.235412862155084E+00
             -0.140896580422885E+00
              0.861823181578831E-01
             -0.219394946565511E+00
              0.119732518828329E+01
             -0.160890506071580E+01
             -0.244225629289905E+00
             -0.238221753110909E+00
              0.278834111864152E+00
              0.421610690625017E+00
             -0.938568898684888E+00
             -0.209868631522811E+00
              0.813460866001492E+00
             -0.348200389332479E+00
              0.251579833114027E+00
              0.604459828107569E+00
             -0.154372375541776E-01
              0.208658776203613E+01
             -0.175784694479958E+00
             -0.618881141509997E+00
             -0.768625637592724E-02
             -0.517564296543003E+00
              0.993923467018734E+00
             -0.901877447501323E+00
              0.266357182567411E+00
              0.882571793573001E+00
             -0.225760169300473E+00
              0.214711061323628E+01
              0.231727838218534E+01
             -0.128698985292025E+01
              0.105146214918819E+01
              0.448481170958568E+00
             -0.103217629914559E+01
              0.307256746550720E+00
              0.801175631384804E+00
              0.863025638258824E+00
              0.813803600211669E-01
              0.352081711636909E+00
              0.137810913334499E+01
             -0.424694872429938E+00
              0.175375497278353E+00
              0.121452114394398E+01
             -0.656116046259985E+00
             -0.459889497642790E+00
              0.109478831151309E+01
              0.564730820978988E+00
              0.139208881040098E+01
              0.640654431567720E+00
              0.257150527568733E+00
              0.450324768340705E+00
              0.783919398135700E+00
             -0.989675243994379E+00
              0.150607144909836E+00
              0.535565407410920E+00
              0.202225115393871E+00
              0.451778675353815E+00
             -0.114238604122043E+01
              0.578645179617254E+00
             -0.785401912620348E+00
             -0.570889671420643E+00
              0.374886805400843E+00
             -0.150516460724316E+00
              0.110777084008729E+01
             -0.225044789212429E+00
              0.535443049348968E+00
              0.549701233645672E+00
              0.139837632267865E+01
              0.952540767375960E+00
              0.937395770439411E+00
             -0.144151787205233E-01
             -0.219525767401939E+00
             -0.539414390444211E+00
              0.151151775216978E+01
              0.150684144873880E+01
              0.720817010293955E+00
             -0.526270997735969E+00
              0.898226161275388E+00
              0.200257743335115E-01
              0.289574001649386E+00
              0.127956682237821E+01
             -0.469886336859200E-01
             -0.181861881028343E+00
             -0.363940713769857E+00
             -0.114295769506800E+01
              0.175794721375707E+01
              0.956810870563748E+00
             -0.118767034716678E+01
             -0.398206389351274E+00
              0.450197566159489E+00
             -0.181870960742173E+00
              0.120534734595071E+01
              0.270702750754901E+00
              0.149012782317324E+01
              0.581894202466345E+00
             -0.402287588049122E+00
              0.313384391602189E+00
             -0.128654867691990E+00
             -0.448065722590349E+00
              0.305561759968084E+00
              0.275409775062109E+00
              0.166874317219727E+01
              0.139536835056656E+01
              0.105280441416043E+01
              0.121492621375412E+01
              0.130566196018483E+00
             -0.463291501547547E+00
              0.247277158426547E+00
             -0.599905269326181E+00
             -0.104614995373146E+01
             -0.101654106810363E+01
             -0.588675031668746E+00
             -0.197770276774733E+01
             -0.692118385370214E+00
             -0.158763162793726E+01
              0.390581000325436E+00
             -0.820521499373798E+00
              0.946343033502304E+00
             -0.182247405667249E+01
             -0.543065029417893E+00
              0.683270262739162E+00
              0.395097018059067E+00
             -0.166796241461887E+01
              0.960939498747628E+00
             -0.517894690595642E+00
              0.101296639365752E+01
             -0.477317485678653E+00
             -0.143006773531793E+01
              0.320830419605381E+00
             -0.120518578055404E+01
             -0.444588012804283E-01
             -0.425973584217550E-01
              0.745639731483238E+00
              0.230399211459856E+01
             -0.777225283322058E+00
             -0.677737020914007E+00
             -0.129407265644918E+00
             -0.137779701100180E+00
             -0.146136050629154E+01
             -0.102793215459497E+01
              0.896955679291263E+00
             -0.319096879339824E+00
              0.425308637336208E+00
             -0.900381784020453E+00
             -0.300949399819968E+00
             -0.759096005640681E+00
              0.884657682981647E+00
              0.209480562458767E+00
             -0.449169620681944E+00
             -0.344806522821830E+00
              0.252729233546120E+00
             -0.134944640910041E+00
              0.730603926037413E+00
             -0.484693091447740E+00
              0.224015869082082E+00
              0.626960528583635E+00
              0.221164766088741E+00
             -0.447762177402323E+00
              0.282702938287217E+01
              0.110550911816919E+01
              0.179399568522915E+00
              0.119636178803102E+00
             -0.111132820608707E+01
              0.613077018853071E+00
             -0.143632177364395E+01
             -0.627293761973880E+00
             -0.109641539282137E+01
             -0.338533050946891E+00
              0.108410408685361E+01
             -0.105990268709441E+01
              0.498913753177240E+00
             -0.839293621011512E-01
              0.210092104650101E-01
             -0.572844403822532E+00
             -0.757609698016362E+00
             -0.140776095950326E+00
             -0.581551696073437E+00
             -0.391442034661335E+00
             -0.735026798919708E+00
             -0.939768881602578E-01
             -0.585248876433748E+00
             -0.883250355340249E+00
              0.376377918561040E+00
             -0.209576920912161E+00
              0.448030528884072E+00
              0.146390794514416E+00
             -0.138606713424526E+01
             -0.919469108870788E+00
             -0.928651286040322E+00
              0.567059112857763E+00
             -0.124681196217234E+00
             -0.111670984191886E+01
              0.104415693206468E+01
             -0.771527751560879E+00
              0.108906988045895E+01
             -0.574199993681767E+00
             -0.893595167967874E+00
              0.442071233077913E+00
             -0.132460530098191E+01
             -0.571751785720780E+00
              0.106615987588281E+01
              0.374764450473317E+00
             -0.814207978508877E+00
              0.102810472990685E+01
             -0.294962107455673E+00
             -0.681634104918325E+00
             -0.544921944207808E+00
             -0.958367968903410E+00
              0.481939199739766E+00
             -0.159409335750334E+01
             -0.139159682140790E+01
             -0.141034884383650E+00
             -0.529861709423460E+00
             -0.111520375184473E+01
              0.140421522259212E+01
              0.252661787998964E+01
             -0.381806811610485E+00
             -0.746574564855997E-01
             -0.109641764448879E+01
              0.121428435568754E+01
              0.399742878897024E+00
             -0.393942568244858E+00
             -0.656367982041057E+00
              0.260048138629987E+00
             -0.108187601060289E+01
             -0.208368722388638E+00
             -0.156575053446684E+01
              0.624137750656796E+00
              0.196528766004525E+00
             -0.101253492825911E+00
             -0.229070873247627E+00
             -0.782476244949878E+00
             -0.249418448476993E+00
              0.250749341892206E+01
             -0.285760292939168E+00
             -0.895695943315610E+00
             -0.127579400383111E+01
              0.259279673839622E+00
             -0.709730331968016E+00
              0.191583898324302E+00
              0.610627028835075E+00
              0.957959051868853E-01
              0.658204297091886E+00
              0.337737661604516E+00
              0.107635850639844E+01
              0.439473104403151E+00
             -0.672443687419984E+00
              0.100363234785397E+01
              0.628259572640624E+00
              0.229647853640609E+00
              0.680586503801645E+00
             -0.589635809569691E+00
              0.131618382417856E+01
              0.489011639456210E+00
             -0.637817567580740E+00
             -0.101239733804859E+00
             -0.302212981970802E+00
              0.281471674437591E+00
             -0.448845152750601E+00
             -0.229355934912577E+00
             -0.235478411422649E+00
              0.148392793191105E+01
              0.106799105112468E+01
             -0.116270427013926E+01
             -0.159593698127408E+00
             -0.912850509816459E+00
             -0.239155619793957E+00
             -0.390350825159980E+00
              0.206883697440380E+00
             -0.516024015856490E-01
             -0.531366317250119E+00
              0.324650255805080E+00
             -0.174699687478498E+00
             -0.126667781300968E+00
              0.159854798615243E+01
              0.264611410151059E+00
             -0.153450008494392E+01
             -0.696982020254985E+00
              0.176651873451013E+01
              0.435569558402838E+00
             -0.156760046936691E+00
              0.200815862756210E+01
             -0.295074304969009E+00
             -0.139652932902566E+00
             -0.224072878096246E+00
              0.291330576444240E+00
              0.618818171594930E+00
              0.521343851264282E-01
              0.523740815877471E+00
             -0.199166739831798E+00
             -0.742089136773497E+00
             -0.725945166191103E+00
             -0.881630139574622E+00
              0.743421359104684E+00
              0.265569224998693E+00
              0.695167487825182E+00
              0.292710760129987E+00
              0.165823423765984E+01
              0.376641901891859E+00
             -0.142136372187797E+01
             -0.607925366070891E+00
              0.464284871338037E-01
             -0.518971028284168E+00
              0.117617959886586E+01
             -0.282764500565630E+00
              0.310679931050807E+00
              0.101815690875514E+01
             -0.148199185685075E+01
              0.271151273561024E+01
              0.361476866319181E+00
              0.444888397453827E+00
              0.697657273694156E+00
              0.608280244760468E-01
             -0.321006252761000E-01
              0.596130365731201E+00
             -0.648612897093971E+00
              0.159550372725268E+01
              0.139105954255778E+01
             -0.718976735777799E+00
              0.308469438089933E+00
              0.132393714021179E+01
             -0.391591487847607E+00
              0.384165587507642E+00
              0.600588183489954E+00
              0.752989501699580E+00
             -0.136280453316979E+01
             -0.103724731961684E+00
             -0.481788338368861E+00
             -0.107034805892818E+00
             -0.136535640963389E+00
              0.129419382863938E+00
             -0.225104510916974E+00
             -0.561426872688337E+00
              0.306956249487597E+00
              0.105856900157256E+00
              0.975556593431735E+00
             -0.855781859853176E+00
              0.847009854131322E+00
              0.931089812332817E+00
             -0.160072722072730E+00
              0.137147668472526E+01
             -0.123790179513511E+01
             -0.189692311246024E+01
             -0.154931640454235E+00
             -0.120654030610778E+00
             -0.836291529227040E-02
              0.143684850212913E+01
             -0.209944453844728E-01
              0.781522300159422E+00
              0.109987415023174E+01
              0.715263898848434E+00
             -0.129283235946033E+00
              0.108562003602076E+01
             -0.302679327965744E+00
             -0.716200014003217E+00
             -0.654974348571587E+00
              0.197410994836942E+00
              0.638409653719437E+00
             -0.460215010728278E-01
              0.618403728312913E+00
              0.971200833803376E-02
              0.101974069006153E+01
              0.291835171231792E+00
              0.146185986559676E+00
              0.126393638129532E-01
              0.539246019031233E+00
              0.742031591929327E+00
              0.271964153378621E+00
             -0.618387290520634E-01
             -0.100443034416649E+01
              0.549177526109047E+00
              0.380958992991358E+00
              0.608502574862137E+00
              0.542995712395402E+00
              0.669881206141314E+00
             -0.169646661052533E+00
              0.630343781322123E+00
             -0.542810980425312E+00
             -0.322954395092534E-01
             -0.969882147123327E+00
             -0.631656777748350E+00
              0.793074460520725E+00
             -0.162086057175279E+01
              0.437996579383052E+00
              0.264189390539418E+00
              0.158667681682093E+01
             -0.233113994901057E+00
              0.611210066258085E+00
             -0.206506326544378E+00
             -0.906502605699955E+00
             -0.120767052537777E+01
             -0.279628311410466E+00
             -0.166866150856761E+01
              0.151422731189473E+00
             -0.381718189316176E+00
              0.599276086207855E+00
              0.456198883530115E+00
             -0.532198094436877E+00
             -0.558353864696569E+00
              0.782611656588797E+00
             -0.106482725970165E+01
             -0.251185365220051E+00
             -0.300060885475797E+00
              0.507250587163915E+00
              0.947571110792067E-01
              0.653113285478195E-01
             -0.277533932188006E+00
              0.986139836382170E+00
             -0.110735878827891E+01
              0.118854925889838E+00
              0.110860494263512E+01
             -0.675866820375082E+00
              0.722341350882298E-01
              0.354946106097405E-01
             -0.118707926356569E+01
             -0.695092584364398E+00
             -0.286928246635778E-01
              0.573563393576369E+00
              0.639872316678330E+00
              0.879829831516457E-01
             -0.221204664709710E+00
              0.308699959027879E+00
             -0.740705903406750E+00
             -0.942657019135655E-01
             -0.973696607257386E+00
             -0.489586787665027E+00
              0.918477961707026E+00
             -0.560604315801248E+00
              0.128797773193215E+01
             -0.437301148348981E+00
              0.604516248766522E+00
              0.467345160828299E+00
             -0.110070521650644E+01
             -0.460379908326495E+00
              0.184157823691018E+00
             -0.775918890452758E+00
             -0.755960822060393E+00
             -0.164084583526799E+01
             -0.101406253513866E+01
             -0.904146429023335E+00
             -0.831416829659134E+00
              0.118477841274611E-02
              0.445388423580292E+00
              0.208890712654715E+00
              0.508231443418313E+00
             -0.107716237497615E+01
              0.245403534821513E+00
              0.536254989462133E+00
             -0.126386569029399E+01
             -0.105386572817097E+01
             -0.728181807580309E+00
             -0.606287433862141E+00
              0.256472650899542E+00
             -0.547068698482160E-01
             -0.769728272624114E+00
              0.511364282980473E+00
             -0.434037687862964E+00
              0.959763033000295E+00
             -0.162200416388111E+01
              0.117741683356417E+01
             -0.214806118061364E+00
             -0.808546956518988E+00
             -0.500801730114095E+00
             -0.190014323944458E-01
              0.898244598635279E+00
             -0.128550739414361E+01
             -0.232761069138594E+00
             -0.309239223596480E+00
              0.757020620636585E+00
              0.148024773924604E+01
             -0.184759280568350E+01
              0.168654590081035E+01
              0.707189376453199E+00
             -0.140002213365135E+01
             -0.574846470046432E+00
              0.145959784655219E+01
              0.104876511666458E+01
             -0.388623258630849E+00
             -0.131149979136097E+00
              0.339057507671168E+00
              0.143180371016149E+01
             -0.109331347388758E+01
              0.232808252998565E+00
             -0.141385629104040E+00
              0.483205418069634E+00
             -0.129542073397135E+01
             -0.454652612535702E-01
             -0.492215108558460E+00
              0.894165293922839E+00
              0.710228012467808E+00
             -0.163944131464643E+01
             -0.863759295662322E+00
             -0.382769081714482E+00
             -0.812098438978619E+00
             -0.225277706168747E+00
             -0.327977722557973E+00
              0.842830571206336E+00
              0.795532872213454E+00
             -0.238732534997022E-01
             -0.816763466062151E+00
             -0.158817460907472E+01
              0.941674750790384E+00
             -0.846517179694542E+00
             -0.695155442134296E+00
              0.134276087548885E+00
             -0.685146169259439E+00
             -0.740722063129320E+00
             -0.573932509331406E+00
             -0.943369892268366E+00
             -0.435880988762838E+00
             -0.916035975585070E+00
              0.100628594724710E+01
              0.108052798861502E+01
             -0.201709992648063E+00
             -0.379952175645865E+00
              0.518782649923057E-01
              0.782381903047114E+00
             -0.155840671647808E+01
             -0.424789702437929E+00
              0.911404091040007E+00
              0.132275221711586E+01
             -0.195255808925565E+00
              0.187244835455310E+00
              0.976351687189946E+00
              0.283173271460532E+00
              0.368968093914281E-01
             -0.722815551855627E+00
              0.271250105593419E+00
             -0.596364072646184E+00
             -0.136265961154595E+00
             -0.391995124399807E+00
             -0.262664883990372E+00
              0.444974128236635E+00
              0.145810937452067E+01
             -0.122318540003098E+00
              0.312531320795997E-01
             -0.168428199372502E+01
             -0.332285859167410E+00
             -0.650128191718992E+00
             -0.189512344870431E-01
             -0.879998118307241E+00
              0.165908078855904E+01
              0.158954324848296E+01
              0.332167359508395E+00
             -0.430044756485567E+00
              0.339299878352894E+00
              0.365998811449664E+00
             -0.856742401937213E+00
             -0.171996881575669E+00
              0.371054657871092E+00
              0.222472406392586E+00
              0.939970134294791E+00
              0.715426239000797E+00
             -0.385871373835045E+00
              0.397662114699711E+00
             -0.179185098002635E+01
             -0.270415495057712E-01
              0.165276500675389E+01
              0.331246726015220E+00
             -0.508088179550832E-01
              0.501880215557473E+00
             -0.441009464664199E+00
              0.160232441905457E+01
             -0.374328765913142E+00
              0.142437477587176E+01
              0.710376662541161E+00
             -0.819203283122818E+00
              0.613696322105154E+00
             -0.520040382168945E+00
             -0.125729217217975E+01
             -0.146582880758924E+00
             -0.992316259552199E+00
             -0.960247420493486E+00
             -0.297034277780885E-01
              0.692632539585196E+00
             -0.256943861722644E+00
             -0.561478484511786E+00
              0.141327758623039E+00
             -0.120989714184190E+01
             -0.680358043295949E-01
             -0.159930518929693E+01
              0.951056989209085E+00
             -0.687039978692439E-01
             -0.900626012499034E+00
             -0.289050207798189E+00
              0.319575064419242E+00
             -0.700360970755263E+00
             -0.814096415600514E+00
              0.168705145553214E+01
             -0.507125184434743E+00
             -0.693230336527673E+00
              0.582833671133028E+00
             -0.400433169631907E+00
              0.105000789374922E+01
             -0.495384724565451E-01
              0.564855483290048E-01
              0.201991639907266E+01
             -0.162455677172593E+00
             -0.710399665588523E+00
             -0.869862965555889E+00
             -0.941603714561714E+00
             -0.686645312468535E+00
              0.531139973423358E+00
              0.569672437704292E+00
              0.506303533925593E+00
              0.137002834366126E+01
              0.981631935826961E-01
              0.423995850231723E+00
             -0.107396031236263E+01
              0.368849434111054E-01
             -0.288577312497649E+00
             -0.508732176220711E+00
             -0.123158756718091E+00
              0.606141575074019E+00
              0.700977128687628E+00
             -0.427724029692118E-01
              0.245688833145261E+00
              0.504002987683198E+00
              0.631112991451951E+00
             -0.435703139526547E+00
             -0.187397927273457E+00
              0.909688562596722E-02
             -0.477620684477907E+00
             -0.579364841305221E-01
             -0.733869463221255E+00
              0.145750738092478E+01
              0.114068514142092E+01
             -0.334468027665261E+00
              0.309676039492872E+00
             -0.103499441892593E+00
             -0.585258082165256E+00
              0.685686950916062E+00
             -0.175864041885607E+00
              0.682264690743430E+00
             -0.886952278917714E+00
              0.328180153409783E+00
             -0.151310946005728E+00
             -0.991014233922339E+00
             -0.448777567791062E+00
              0.448483553163521E+00
             -0.179312670207226E+01
              0.714283993681605E+00
              0.857076816852944E+00
             -0.185586630215736E+00
             -0.131970549814167E+00
             -0.708729049911305E-01
              0.487232594436978E+00
             -0.621408872252892E+00
              0.579929275956315E+00
              0.590597685703958E+00
             -0.167728437281283E+01
             -0.669385140279438E+00
              0.445012451879720E+00
             -0.222253286655230E+00
              0.897085158951350E+00
             -0.114633125016501E+01
             -0.183187460525160E+00
             -0.731623406328219E+00
             -0.239955316710232E+01
              0.145544489638141E+01
             -0.109774681468726E+01
             -0.122714809402038E+01
              0.119816524948422E+00
              0.237850475703993E+01
              0.120677490523981E+00
             -0.599713993446390E+00
             -0.291710213755207E-01
             -0.753132360427951E-01
             -0.157525085721865E+01
             -0.102521886182229E+01
              0.157617082875190E+01
             -0.219903270036507E+00
             -0.662511357422743E+00
              0.895832248344711E+00
             -0.607736581359796E+00
              0.617176699520328E+00
              0.896945075381196E+00
             -0.979882996495441E+00
             -0.515449130238432E+00
             -0.593506669039669E+00
             -0.326271064232036E+00
             -0.356297883769637E+00
             -0.331653113742240E+00
              0.354633669576485E+00
             -0.649820616920655E+00
              0.508800898669921E+00
              0.101202525712965E+01
             -0.121944818684872E+00
             -0.384377735796474E+00
              0.281358634277967E+00
              0.100396485498552E+01
              0.101035387909260E+01
              0.197292059123793E+00
             -0.188987787307990E+00
             -0.201337028084470E+00
             -0.978277623263380E+00
              0.743971951557352E+00
             -0.450716052204599E+00
              0.412738256847691E+00
             -0.243227671664235E+00
              0.482423496274992E+00
              0.316734042108078E+00
             -0.150559850792378E+01
             -0.467952354956006E+00
             -0.144514705256434E+01
             -0.729295473221818E+00
              0.790648550249982E-01
             -0.356966784522498E+00
              0.642756375863164E+00
             -0.527354821649769E+00
              0.652522451883117E-01
              0.139714130874251E+00
              0.128951994558175E+01
              0.667695739754858E+00
             -0.600043615314882E+00
             -0.402623508107673E-01
              0.271410917163472E+00
              0.682203163359048E+00
             -0.123675565981012E-01
              0.103869565397117E+01
              0.497882965815317E+00
              0.166395217027556E+01
              0.599827585303025E-01
              0.114844056554380E+01
             -0.508525553924034E+00
             -0.715346177122651E+00
              0.435203268031348E-01
              0.198100199746065E+00
              0.423674077292344E+00
             -0.367060116290997E+00
             -0.203633336389127E+00
              0.430923996346627E+00
             -0.872149430461251E+00
             -0.109544736305242E+01
              0.146941842681656E+01
             -0.115776546302698E+00
             -0.680388369510989E+00
             -0.939932913337023E-01
             -0.263442431984732E+00
              0.813804573401963E+00
              0.655572636101630E+00
             -0.373101876161670E+00
             -0.287010357692941E-02
             -0.474306444604066E+00
             -0.656036702961066E+00
             -0.443737858089046E+00
             -0.180242709899253E+01
              0.215501096863391E-01
             -0.118675131667164E+01
             -0.108255869736077E+01
             -0.688631189353536E+00
              0.406868837819836E+00
             -0.704113924233814E+00
              0.443557350240942E+00
             -0.119222687724756E+01
              0.492386153417179E-02
             -0.778530739066474E+00
              0.146705561103035E+00
              0.144427172304043E+00
              0.648160789420215E+00
             -0.379722345508152E+00
             -0.337767110340401E+00
              0.586909518798012E+00
              0.109434458098395E+01
              0.595813838890144E+00
              0.198275782777531E+00
             -0.136852184169399E+01
             -0.298726523677908E+00
             -0.521347548939771E+00
             -0.112863633205699E+01
              0.793490857684231E+00
             -0.640796931530716E+00
             -0.128237624460877E+00
             -0.511166934316881E+00
             -0.182626263123464E+01
              0.102621619010990E+01
             -0.341780609297491E+00
              0.717929317373645E+00
             -0.136287553586754E+01
              0.121033937752060E+01
              0.110689846944331E+00
             -0.477161956531578E+00
              0.193112358824823E+00
             -0.368588508548277E+00
             -0.115509459890795E+01
              0.313315996206976E+00
              0.722524318791130E+00
             -0.222153210568994E-01
             -0.635606271409880E+00
             -0.293742026034077E+00
              0.376775698827699E+00
              0.670630955002862E+00
              0.113841277405403E+01
              0.419977678179798E+00
             -0.423022774040964E+00
              0.184048571891781E+01
              0.391928564598668E+00
              0.862193396984280E+00
             -0.308230517337126E+00
              0.540803003297721E+00
              0.436443099212730E+00
             -0.113532567496742E+01
             -0.409556402761585E+00
             -0.744096551042561E+00
             -0.761299802082795E+00
             -0.220026683938777E+00
             -0.170288800119229E+00
             -0.849390154796650E+00
             -0.204055149313962E+01
             -0.499312300793952E+00
              0.248524820866415E+00
              0.115314079464103E+00
              0.283892021454777E+00
              0.753149685586881E+00
              0.200485730148201E+00
              0.579083707149511E+00
             -0.793834888191955E+00
              0.801355931104016E+00
             -0.735744387964473E+00
             -0.124544132252067E+01
              0.380927896100047E+00
             -0.778852520773599E+00
             -0.731293518861735E+00
             -0.292932352113354E+01
             -0.138151607457417E+00
              0.154873675830064E+01
              0.749933801584153E+00
             -0.190459698663549E+00
             -0.204999959609579E+00
              0.802313316498772E+00
              0.118358037744525E+01
             -0.720975424194913E+00
             -0.228530050728917E+00
             -0.668701369915017E+00
             -0.618734167073953E+00
             -0.538086391219385E+00
              0.200073880883525E+00
              0.128334544614144E+01
             -0.119977337130043E+01
             -0.100413617808743E+01
              0.648116968893993E-01
             -0.271774599680369E+00
             -0.308289877162203E+00
             -0.164527576014275E+01
              0.115944741801896E+01
              0.371837317470892E+00
              0.175550724288379E+00
              0.950781351063032E+00
             -0.605984281890700E+00
              0.612716581422136E+00
              0.526556563750075E+00
              0.308083214705199E-01
             -0.150391734918580E+00
              0.152952257720243E+00
             -0.288116862791212E+00
              0.971377800429422E+00
             -0.728579858215236E+00
              0.848265664104883E+00
              0.171100939616963E+00
              0.313223256850140E+00
              0.370298275467036E+00
             -0.150903951633985E+01
              0.191109704359629E+00
             -0.122860802893653E+01
             -0.886014764025678E+00
             -0.880028926751349E+00
             -0.969700341267736E+00
              0.122563148805455E-02
              0.347842834695660E+00
              0.917600970070126E+00
              0.133981015004925E+00
              0.274813703569082E+00
             -0.128028285191452E+01
             -0.510109547958023E+00
              0.592733285001092E+00
             -0.701745780471204E-01
             -0.577373678155455E-01
             -0.171744407027072E+00
              0.656886061475867E+00
             -0.167197214881758E+01
              0.240065946401127E+00
              0.379683219754253E+00
              0.725122264964384E+00
              0.680401021875709E+00
             -0.104257068989213E+01
              0.284875343561678E+00
              0.121107978448925E+00
              0.127819211920833E+00
              0.111145694673502E+00
             -0.357146444791329E+00
             -0.783723932253904E+00
              0.330725627794487E+00
              0.107104264426972E+01
             -0.227847324852366E-01
              0.245370061289059E+00
              0.234710451737209E+00
             -0.559715647023320E+00
             -0.595848145745332E+00
             -0.225068774555558E+01
             -0.694345510432526E+00
             -0.107630863488078E+01
             -0.114503846832282E+00
             -0.125444838152819E+01
              0.138788462605563E+01
             -0.616598998317500E+00
             -0.101360778023804E+01
             -0.287976735828108E+01
              0.123089071029418E+01
              0.272245231003806E+00
              0.183786491523485E+00
             -0.112411845578791E+01
              0.817353730925117E-01
             -0.316576805270876E+00
             -0.578250160237763E+00
              0.163372618193233E+00
              0.597445553018779E+00
              0.957580766634805E-01
             -0.383368650317591E+00
              0.652752129830141E-01
              0.243481804268804E-01
              0.204167660197298E+00
             -0.122463327708774E+01
              0.135576576514090E+01
             -0.767371912531091E+00
             -0.493548129634406E+00
             -0.950780845656789E+00
             -0.201056923105805E+01
              0.920452811425232E-01
             -0.104766159380708E+01
             -0.334178402530679E+00
              0.568662341219776E+00
             -0.493212332440415E+00
             -0.193897455859688E+00
             -0.239704565122489E+00
             -0.364885243930795E+00
              0.626295066832295E-01
              0.958869753567462E+00
             -0.924013575863995E+00
              0.191005062099886E+01
             -0.456926722064479E+00
              0.592576341657941E+00
             -0.327784525434060E+00
              0.216654552879608E+00
             -0.222143849249758E+00
              0.812151262337579E+00
              0.115234213654916E+01
              0.330345273868683E+00
              0.810275649059425E+00
             -0.548436445803504E+00
             -0.141542811125923E+00
             -0.434390775043488E+00
              0.118096297500724E+01
              0.101460443632515E+01
              0.743980926908039E+00
             -0.235800969508926E+00
             -0.471759684035855E+00
              0.442559534086058E+00
             -0.536764275172838E+00
             -0.266610817479098E+00
             -0.104141603649998E+00
             -0.648291462890450E+00
              0.897575330972204E+00
             -0.197043712611767E+00
              0.663934050314185E+00
              0.412199927198918E+00
              0.279844394265456E+00
             -0.621846344685236E+00
              0.459124146690600E+00
             -0.262021597967780E+00
             -0.142557758233323E+00
             -0.191066441950651E-01
             -0.881217645369730E+00
              0.141984911880958E+01
             -0.487399253685246E+00
             -0.439513311346040E-02
              0.455080166022639E+00
              0.385517079130008E+00
              0.141925886567289E+01
             -0.389328997709507E+00
              0.138152880248102E+01
              0.122376041921360E+01
             -0.170969129046468E+01
              0.124963295826758E+00
             -0.336789827376140E+00
              0.228848103703020E+00
              0.877703918029038E-01
              0.389496909953765E+00
              0.117815786477184E+01
              0.183522946416779E+01
             -0.134544490131414E+01
              0.139775575972437E+01
             -0.185336490789041E+01
             -0.158094499655961E+01
             -0.273594957046997E+00
              0.163513294592414E-01
              0.143902134206961E+01
              0.599915432018520E+00
             -0.240140715749869E+00
             -0.154239150042479E+01
              0.123781883059515E+01
             -0.753852594845696E+00
              0.316560450875514E-01
             -0.984074362138725E-01
              0.238106940806657E+01
             -0.410179930297983E+00
             -0.193949410252690E+01
              0.555868237745099E+00
             -0.298130649681446E+01
              0.232390698784776E+00
             -0.703997437600792E+00
             -0.324195465788837E+00
             -0.474912380134596E+00
             -0.109089215934017E+01
              0.674020637158210E+00
             -0.673584672988545E+00
             -0.257523435716404E+00
             -0.139363433078049E+01
             -0.741435263145638E-01
             -0.100081544295295E+01
             -0.141765050350529E+01
             -0.195645234141408E+01
              0.149165709854486E+00
             -0.684096758741831E+00
              0.187571962358362E+00
             -0.252442645671556E+00
             -0.153021353339280E+01
             -0.118902570877073E+01
             -0.104563922676419E+01
             -0.107870717362905E+01
              0.961421938949709E+00
              0.100074478518262E+00
             -0.914037431471308E+00
             -0.457092905251214E+00
             -0.505270878677986E+00
              0.767566399269675E+00
             -0.559511290699273E+00
             -0.820844283403909E-01
             -0.580435238839824E+00
             -0.717822657054572E+00
             -0.768421042837883E+00
              0.738402217779045E+00
             -0.241427330087735E+00
             -0.170153664317940E+01
              0.142609142662899E+01
              0.826367212530517E+00
              0.550268807196117E-01
             -0.149811237162264E+01
             -0.137212860860769E+01
              0.933750638744932E-01
              0.979698771603132E-02
             -0.616803190308186E+00
             -0.807845646533456E+00
              0.550680095701379E+00
             -0.889088888053937E-01
              0.494317679429199E+00
              0.884410098999256E+00
              0.639573504743108E+00
              0.462330248196398E+00
              0.402980889903584E+00
             -0.406993828431284E+00
             -0.279697007748971E+00
             -0.349378893680994E+00
             -0.702665947996667E+00
             -0.856849415316220E+00
             -0.111450603489151E+01
             -0.658663207068084E+00
             -0.230247762365392E+00
             -0.136888310952473E+01
             -0.314049517291759E+00
              0.665334506298579E+00
             -0.155342520467735E+01
              0.664853741142691E+00
              0.542887958283297E+00
             -0.133755181730689E+01
             -0.102736327779437E+01
             -0.420935076537893E+00
              0.233369809628939E+00
             -0.757960296035177E+00
              0.138222934998744E+01
              0.121986018383644E+01
             -0.142482390087932E+01
              0.763035101389523E+00
              0.667530455692282E+00
              0.181566064109713E+00
              0.348894908343581E+00
             -0.786314175654515E+00
             -0.280094284860986E+00
              0.124345598889152E+00
              0.379546944455064E+00
              0.760246070560411E+00
             -0.989091138516481E+00
             -0.197779969689382E+00
              0.292171975372571E+00
              0.182494633386329E+00
             -0.626990460670597E+00
              0.343707258709668E+00
             -0.458944812256510E+00
             -0.336985955810432E+00
             -0.137992593879579E-01
             -0.113637319360336E+01
             -0.505321268144576E-02
             -0.172254512923669E+00
             -0.281546764638111E+00
              0.285415213301576E+00
             -0.973819441439720E+00
              0.108470066148874E+01
             -0.401590915911791E+00
             -0.247612104957804E+01
             -0.157893915330717E+01
              0.641740906348478E+00
             -0.776295509336977E+00
             -0.393975181984116E+00
             -0.429707690551985E+00
             -0.356546130562076E+00
             -0.190581719263964E+01
             -0.262605433765888E-01
             -0.114570878328988E+01
             -0.625691356411619E+00
              0.368022839162809E+00
              0.147161167158630E+01
              0.889890787184320E-01
              0.451876102672237E-01
              0.110977931951492E+01
             -0.106900465476291E+01
              0.521080907563955E+00
              0.112818492331369E+00
             -0.976395776679963E+00
             -0.559957254166388E+00
              0.360343300410428E+00
              0.570340937483211E-01
              0.305096837601880E+00
              0.249306779577474E+00
             -0.430785600362039E+00
             -0.620978844737465E+00
             -0.924982774010047E+00
              0.917133315417534E+00
             -0.125297097132275E+01
             -0.923511766777105E+00
              0.266791413835520E+00
             -0.155457947144393E+01
              0.434486788458092E+00
              0.111594885601591E+01
             -0.206214294812481E+00
              0.357515412725527E+00
             -0.621816568651700E+00
             -0.413086334885368E+00
              0.191353908463674E+00
              0.667296551449769E+00
             -0.678015094928651E+00
              0.419851524200058E+00
             -0.255691478266875E+00
              0.134223731555748E+00
              0.346446574325098E+00
              0.180466279864418E+00
             -0.232761486518831E+00
             -0.180199111220380E-01
              0.224212503400897E+00
              0.516463526023392E+00
             -0.130912167247508E+01
             -0.232277627405928E-01
              0.966767021807848E+00
             -0.162927141909175E+01
              0.602198257795787E+00
             -0.209845581369257E+01
             -0.212131428033357E+00
             -0.263071080029403E+00
             -0.546902851744111E-01
             -0.234728435283062E+00
             -0.503091898092889E+00
             -0.198593194684539E+00
              0.220542593349338E+00
             -0.477025681882800E+00
              0.198740476840196E+00
              0.167035340561383E+01
             -0.104998358861219E+01
             -0.465272304236335E+00
              0.774810991888741E+00
              0.392982136887200E+00
              0.786618703131969E+00
              0.376794268105942E+00
              0.308926005220078E+00
             -0.266205475905894E+00
             -0.904717236675994E+00
             -0.831011514302533E+00
             -0.637443253622556E+00
              0.110637494607279E+00
             -0.786806324089087E+00
             -0.219607943326345E+00
              0.114024381822621E+00
              0.449858095315303E+00
             -0.127581182925762E+00
              0.108858492272295E+01
             -0.120361292688425E+01
             -0.215131000208997E-01
             -0.127849380673711E+00
              0.575544208156924E+00
             -0.775006542057737E+00
             -0.507096682502625E+00
              0.245639754444628E+00
              0.827843617977543E+00
              0.139453179144123E+01
              0.556711693493605E+00
              0.845261800473258E+00
             -0.455282379057876E+00
              0.116657759562923E+01
              0.116868635900208E+01
             -0.262295607129985E-01
              0.561770666233604E+00
              0.690297210451082E+00
             -0.384770648469567E+00
              0.263874278771053E+00
              0.120185057936613E+01
             -0.391943256246702E+00
             -0.124363444519464E+00
             -0.114369120314852E+01
              0.411149512341605E+00
             -0.279617221086097E+00
              0.391724328716225E+00
              0.289407670776218E-01
             -0.719055231158632E+00
              0.837821823258757E+00
              0.725769889427696E+00
             -0.576238716103516E+00
              0.324673507639766E+00
             -0.110800740987762E+01
             -0.997950473133465E+00
              0.454544378677422E+00
             -0.125206873688525E+01
             -0.633581907063982E+00
              0.205092002894816E-01
              0.157750735323443E+01
             -0.419304233129180E+00
             -0.204815020135623E+00
             -0.374628698542870E+00
              0.205704689790917E+01
              0.333284847301599E+00
             -0.781684385187841E+00
              0.130483483270568E+01
              0.115130375143754E+01
              0.603737473282473E+00
              0.146738109308423E+01
              0.161043386406230E+01
             -0.662704621524131E-01
             -0.528668399640797E+00
             -0.466648662738642E+00
              0.513393064820106E+00
              0.716865812072977E+00
             -0.134098426341688E+00
             -0.445506592528298E+00
             -0.106010198936587E+01
             -0.382044814571454E+00
             -0.852832743491488E+00
              0.617232195636536E+00
              0.326562872456080E+00
              0.111889511698321E+01
              0.239854408339249E+00
             -0.420893675151021E+00
             -0.157164995931609E+00
              0.730083168183961E+00
              0.192224339176827E+00
              0.112353020636140E+01
              0.102088075871208E+01
             -0.161677290201018E+00
             -0.173776342458110E+00
             -0.187506367144205E+01
              0.907039612931673E+00
             -0.313664313982542E-02
              0.105584117403996E+01
             -0.464584378536222E+00
             -0.121534856366449E+01
              0.361828502767136E+00
              0.133951715929237E+01
             -0.469201332118943E+00
              0.121786116288023E+01
             -0.132680633800576E+01
             -0.472064456791065E+00
             -0.157204657895757E+01
              0.296484738792289E+00
              0.828419185458591E-01
              0.155989408058681E+00
             -0.114806343609036E+01
              0.171618705451933E+01
              0.994430859053093E+00
              0.116797534445502E+00
             -0.100676947671336E+01
              0.383412846273483E+00
             -0.339400357013788E+00
             -0.274508735936019E+00
             -0.503175382233124E+00
              0.307158806212710E+00
             -0.317699130655194E+00
             -0.341548719573094E+00
              0.434703741042107E+00
              0.431361573589502E+00
             -0.164409641165010E+01
              0.364158077719908E+00
              0.121758668111651E+01
              0.774336092375858E+00
             -0.232365156808323E+00
             -0.340383286575205E-01
             -0.674943815576767E+00
              0.102476709193095E+01
              0.174408724007449E+00
             -0.590991008018982E-01
             -0.115202025174863E+00
              0.199402424874174E+01
             -0.134989530529059E+00
              0.409669033136219E+00
              0.137233989484770E+01
              0.176680146782728E+01
              0.110164163341298E+01
              0.722639221302275E+00
             -0.118597023835726E+01
             -0.853303624245120E+00
              0.663082810280119E+00
              0.974723587618227E-01
              0.563019878675171E+00
              0.239100678856986E+00
              0.119281938149691E+01
             -0.145743525990839E+01
             -0.896215786229819E+00
             -0.216886897286484E+00
             -0.159675319038476E+01
              0.353569555572872E+00
              0.853425629967321E+00
              0.178104622097948E-01
             -0.378848230392019E+00
              0.390557200625259E+00
              0.248257234856655E+01
              0.587559692914525E+00
              0.321636307332517E+00
             -0.862396670237192E+00
             -0.106319632393372E+01
             -0.246159083417903E+00
              0.535793650689384E+00
             -0.105547011903862E+00
              0.482098029060939E+00
              0.650211792017837E+00
             -0.111515343586792E+01
              0.492790790963292E+00
              0.623755999492667E+00
              0.103084713410608E+01
             -0.181090022038600E+00
              0.102852571841011E+00
             -0.134562750998781E+00
             -0.819819594601810E+00
             -0.133618153041106E+01
              0.139035672536008E+01
             -0.183629253245905E+00
             -0.969029481698916E+00
              0.153364724611242E+00
             -0.556056860151218E+00
              0.157686121798444E+01
             -0.424841514150778E+00
             -0.694291424011213E+00
              0.685065672960158E+00
             -0.289366267209028E+00
              0.852372424806522E+00
              0.448912204350007E-01
              0.169849046929475E+01
              0.970527792973611E+00
              0.221735983748594E+00
             -0.722634859432425E+00
              0.526141177403347E+00
             -0.990071370881581E+00
             -0.844060380866998E-01
              0.117978817080889E+01
             -0.466346668795164E+00
             -0.796686979358243E+00
             -0.425465256207510E+00
              0.943765605725398E+00
              0.212890932061299E+00
             -0.149135863434490E+01
              0.627710817591117E+00
              0.111235646169611E+00
              0.203087235744488E+00
             -0.898681131686521E+00
              0.178028305879318E+00
              0.627346588125559E+00
              0.838763724763071E+00
              0.120299886239168E+01
              0.640160607799209E+00
              0.132600106134448E+00
             -0.102232212587720E+01
             -0.779755091630919E+00
             -0.118307808655956E+01
             -0.264633989230925E+00
              0.628699086037792E+00
             -0.645683970506905E-02
              0.952625045733848E+00
             -0.584227449675121E+00
              0.309824626937786E+00
             -0.425644628602508E+00
             -0.500727600408735E+00
              0.108854614810291E+01
              0.100916421453108E+00
              0.114719686023679E+01
              0.999775674525925E-01
              0.356577125364077E+00
             -0.303877447899250E+00
              0.110246461858476E+01
             -0.309835587601246E+00
              0.592424290080551E-02
             -0.143516800562948E+01
             -0.131719964725087E+00
              0.127864947048779E+01
              0.117190450286380E+01
              0.467584902667831E+00
             -0.293166746310907E+00
              0.105503238848511E+00
             -0.437806357221198E+00
             -0.363155057122285E+00
              0.165525345843177E+01
              0.144079669515845E+00
             -0.527786934374346E+00
             -0.194322064469959E+01
             -0.777045716227416E+00
             -0.700932626727708E+00
             -0.111391950024416E+01
             -0.108983907266789E+01
             -0.129556652782454E+01
             -0.824085006657702E+00
             -0.509385214503780E+00
             -0.886393514117589E+00
              0.813404211649275E+00
             -0.319411153711389E+00
             -0.153367088452194E+01
              0.757303943556940E+00
             -0.613039740518611E+00
             -0.145550386902770E+01
              0.184554592321895E+01
             -0.468607070439656E+00
              0.273139912753431E+00
              0.693262632196270E+00
              0.251561957699900E+00
              0.489082524791597E+00
              0.275235982289184E-01
              0.231123564756575E-01
             -0.243355803560579E+00
             -0.135622364855634E+01
              0.201681308974810E+00
             -0.220122785170004E+01
              0.133723898293508E+01
             -0.739430375502842E+00
             -0.348402015797557E+00
             -0.383519455085402E+00
              0.403313964697609E+00
             -0.290335633313987E+00
              0.510297166795283E+00
             -0.107144777993637E+01
              0.660656252718023E+00
              0.794806550611116E+00
              0.150758415235396E+00
              0.176675852265226E+00
              0.395420120006024E+00
              0.188029483517124E+00
              0.538038880426504E+00
             -0.801426960989455E-01
             -0.137701028340043E+01
              0.172838539495657E+00
             -0.624222786631916E+00
             -0.613199991165949E-01
              0.103746771758952E+01
             -0.146210733760633E+01
              0.416863643199514E-01
              0.695236744819203E-01
              0.176443134884190E+00
              0.556124512906581E+00
             -0.227544959746934E+00
              0.154076205887119E+01
              0.671296414421315E+00
             -0.264669589276717E+00
             -0.151218224796763E+00
              0.119013523126393E+00
              0.143638145639415E+01
             -0.903995801177556E+00
             -0.185888406764336E+01
              0.540443516837014E+00
             -0.159090655533555E+00
             -0.294438345767566E+00
              0.347724668876475E+00
              0.137647418879594E+01
              0.764537834609988E+00
             -0.309864876319719E+00
             -0.993833116319783E+00
             -0.233499770724029E+00
              0.500666536303179E+00
             -0.331272692144148E+00
             -0.140554839387754E+01
             -0.176602342025624E+00
             -0.179887162506320E+01
             -0.954021955532157E+00
              0.160061087976744E+01
             -0.966479463770397E+00
             -0.131244694241294E+01
             -0.973159547338165E+00
             -0.737303552789343E+00
              0.637756499792229E+00
              0.157067742505522E+01
             -0.187934246921036E+00
              0.484100930086124E+00
             -0.385904172803232E+00
             -0.125409146416453E+01
              0.942194287251805E+00
             -0.891842511586832E+00
              0.449405772378421E+00
              0.522259678120791E+00
             -0.289467343460937E+00
              0.666758226108798E+00
              0.707445376946771E+00
              0.222569065776441E+01
             -0.182075903401580E+00
             -0.104817613802698E+01
             -0.121900860908473E+01
             -0.356772459603481E+00
             -0.776295003503797E+00
              0.170394578124648E+01
             -0.830917826119499E+00
              0.191634029516544E+00
              0.401424741549974E-01
             -0.357666376055978E+00
             -0.158959987457353E+01
             -0.121114085601211E+00
              0.185062120224172E+01
              0.408796149118452E+00
              0.135252089741876E+00
             -0.109542149946531E+01
             -0.100815412863728E+01
             -0.334940695713970E+00
              0.830208624944248E+00
             -0.490611494190846E+00
              0.185290700641103E+01
             -0.889776595552566E+00
              0.357693812552603E+00
             -0.234702097271416E+00
             -0.113968529967537E+01
              0.120108546398885E+00
             -0.103694221497051E+01
             -0.136453707091136E+01
              0.211134455617076E+00
              0.227904413354629E-01
              0.909657362444018E+00
              0.497543851196672E+00
             -0.645904710419699E+00
              0.393592584266205E+00
             -0.164188306612150E+01
             -0.865866392728050E+00
              0.170672634250040E+01
              0.607179250046510E-01
             -0.944890348552399E-01
             -0.458037053109528E+00
             -0.133960265432123E-01
             -0.230146093245073E+00
              0.170282970551316E+01
              0.762230740904219E+00
             -0.155643745353460E+00
              0.958546539387051E-02
             -0.701645628971999E+00
             -0.227091799810755E+00
             -0.114051902635753E+01
              0.953977985189345E+00
              0.123537540734690E+00
              0.140872087846863E+00
              0.356008348501597E+00
             -0.254442041804967E+00
             -0.422812235308370E+00
              0.176903686693641E+00
             -0.206017789317860E+01
             -0.194466626103597E+00
             -0.181532367947043E+00
             -0.114376042880850E+00
              0.880781730973961E+00
              0.119624787851193E+01
              0.334200094297206E+00
             -0.171970275331354E+01
              0.117065110727731E+01
             -0.437630059838459E+00
             -0.681638898630204E+00
             -0.160705630532110E+01
             -0.492764110888331E+00
              0.117457485740727E+01
              0.618332184640151E+00
              0.295039542325648E+00
              0.649344421312808E+00
             -0.103621651048423E+01
             -0.906512880238910E+00
              0.114986682430946E+01
              0.761936908242149E+00
              0.860806547625633E+00
              0.170955889120206E+00
              0.192654861289848E+00
              0.977958390254423E+00
              0.181464744336016E+01
             -0.321562825458619E+00
              0.741537231475261E+00
             -0.556929608412134E+00
             -0.809035915550393E+00
             -0.639605898759612E+00
             -0.626517283468949E+00
             -0.264303870644147E+00
             -0.877391634346143E+00
             -0.346464505053323E+00
             -0.238230198022555E+01
              0.583353297549695E+00
              0.522524316772068E+00
             -0.664378188109223E-01
             -0.676625065470892E+00
             -0.333537875281380E+00
             -0.104175188967639E+01
              0.108355893619608E+00
              0.146080377130295E+01
             -0.355466831085442E+00
             -0.347459122994426E+00
              0.351838811189721E+00
             -0.941802295454705E+00
              0.157672985172215E+01
              0.283919107216924E+00
              0.123276028361984E+00
              0.951720340965870E+00
             -0.112931919262263E+00
              0.108214983516893E+01
              0.373419844264877E+00
             -0.300140607650379E-01
              0.245016897800791E+00
             -0.189960670149494E+00
              0.122876863297236E+01
              0.134463320557594E+00
              0.393048363599703E+00
             -0.169911203443972E+00
              0.203130411496221E+00
             -0.173612475102539E+01
             -0.641635241653107E+00
             -0.917963996540225E+00
              0.914228530462316E+00
             -0.652253367992175E+00
             -0.102365518365866E+01
              0.109745747065980E+01
             -0.254611667868383E+00
              0.757184451189238E+00
             -0.163735826221877E+01
              0.319218891253644E+00
              0.701797497054506E-01
              0.127606656276651E+00
             -0.253998173480690E+00
             -0.119948224422041E+00
              0.930509742687254E+00
              0.518235090361721E-01
             -0.983963853950673E+00
             -0.402535108073133E+00
              0.336940809106035E+00
             -0.212649768736169E+01
             -0.159657040208556E+01
              0.137219289012886E-01
              0.304997099370427E+00
             -0.947140021682926E+00
              0.175515306879657E-01
              0.189609817739634E+01
              0.522159107249042E+00
             -0.994943410989636E+00
              0.141950517213015E+00
             -0.195701897076422E+00
              0.246520378009343E+00
             -0.667749428922428E+00
              0.429952387490975E+00
              0.434905938837488E+00
             -0.156455910537020E+00
              0.208105875077814E+01
             -0.725601987852067E-01
             -0.566432829862551E+00
              0.575353072142843E+00
              0.793577599993876E+00
             -0.587581905754593E+00
             -0.163995471079393E-01
              0.181207885839656E+01
             -0.303879052325087E-01
              0.970326681000110E+00
              0.304869426768560E+00
             -0.119213237746584E+00
             -0.287280844637882E+00
              0.875512725864398E+00
             -0.109191308137537E+01
             -0.351939368561407E-01
             -0.374321931335308E+00
             -0.739309604448240E+00
              0.214341047327794E+00
              0.466740749547265E+00
             -0.304333239155081E-01
             -0.253467076010114E-01
             -0.768600366228003E+00
              0.271357219957169E+00
             -0.275326654309045E-01
             -0.398889578858972E+00
             -0.370301545635952E+00
              0.300211248547886E+00
             -0.485239746902444E-02
             -0.715360951421517E+00
             -0.199171195819148E+01
              0.129753802064507E+00
              0.268707821427824E+00
             -0.906687311973700E+00
             -0.468988242445571E+00
              0.152076218607435E+01
              0.246039115558442E+00
              0.814297200929621E+00
              0.207924656943202E+00
              0.739170211347630E+00
              0.466600459156687E-01
             -0.726513333850391E+00
             -0.237626092595685E+00
              0.957920655257656E-01
              0.582746681026388E+00
              0.136640008380398E+01
              0.913676670508908E+00
              0.608861011825192E-01
              0.217312199804301E+00
              0.112042426124846E+01
              0.523097328133254E+00
             -0.127108521809608E+01
             -0.516313942217330E+00
              0.196550545292109E+00
              0.188703765188140E+00
              0.461711215855111E+00
             -0.942845860714367E+00
              0.860222215143767E-01
              0.775007493304903E+00
              0.897807206389837E+00
             -0.777805897524603E+00
              0.612764629225691E-01
             -0.442413489485443E-01
             -0.386912119987185E+00
             -0.459739451160186E+00
             -0.210105909081756E+00
             -0.245326083331778E+00
              0.216069358798436E+00
              0.778498388942264E+00
             -0.602331611424809E+00
              0.149923566303649E+01
              0.612846416062564E+00
              0.488753240308808E+00
              0.690790154084245E+00
              0.446361981140838E+00
              0.663385519991220E+00
              0.102287590675802E+01
             -0.873296630355647E+00
              0.116321138694296E+01
             -0.210643746171606E+01
              0.579335020292487E+00
             -0.194065787828351E+01
              0.149082868712333E+01
              0.144304586484488E+01
             -0.153194413015161E+00
             -0.864665022446603E+00
             -0.800206934088715E+00
             -0.988485760958421E+00
             -0.121202620639117E+01
              0.101564307640543E+01
              0.787680132645359E+00
              0.449400245381474E+00
              0.463971219769837E+00
              0.842246049656869E+00
             -0.759780180259883E+00
             -0.269776044795660E+00
              0.982539968241155E+00
             -0.224540766682364E+00
              0.922627099550556E+00
              0.143335245341258E+01
             -0.697509553035537E-01
             -0.139905524177019E+01
              0.111200851008689E+00
              0.182212922188953E-01
             -0.192082137747562E+00
              0.578155177512629E-01
             -0.119294484203586E+01
             -0.145134381772547E+00
              0.254138129673447E+00
              0.274974511626986E+00
              0.923905819783291E+00
             -0.779959645445548E+00
              0.942146943791341E+00
             -0.703184846390462E+00
              0.505950081351704E+00
              0.805853418810368E+00
 
 BEEF-vdW xc energy contributions
           1 :   -12.8962168788215     
           2 :    10.6205485092239     
           3 :   -7.32937214323193     
           4 :    4.22173188775013     
           5 :   -1.89817871624402     
           6 :   0.496632585517453     
           7 :   0.114532835490806     
           8 :  -0.220367923438889     
           9 :   0.128449756772010     
          10 :  -6.233447895474242E-002
          11 :   9.886697978860504E-002
          12 :  -0.198175909316273     
          13 :   0.279988131557687     
          14 :  -0.291907760717079     
          15 :   0.224518895344158     
          16 :  -0.105415511875449     
          17 :  -2.161647981967540E-002
          18 :   0.114722314047665     
          19 :  -0.151217366200671     
          20 :   0.131453777971817     
          21 :  -7.515563385640256E-002
          22 :   5.492595149398483E-003
          23 :   5.866758096416547E-002
          24 :  -0.104363383674711     
          25 :   0.127684916194891     
          26 :  -0.137152730697073     
          27 :   0.142520500216037     
          28 :  -0.148174197145361     
          29 :   0.153638528896110     
          30 :  -0.154747845709561     
          31 :   -1.74823043968333     
          32 :   -1.10188072512190     

     Writing output data file ./pwscf.save/
 
     init_run     :     65.07s CPU     67.62s WALL (       1 calls)
     electrons    :    473.35s CPU    515.30s WALL (       1 calls)
     forces       :     25.97s CPU     28.12s WALL (       1 calls)

     Called by init_run:
     wfcinit      :      1.83s CPU      1.90s WALL (       1 calls)
     potinit      :     54.85s CPU     56.75s WALL (       1 calls)
     hinit0       :      6.88s CPU      7.01s WALL (       1 calls)

     Called by electrons:
     c_bands      :     65.13s CPU     66.00s WALL (      15 calls)
     sum_band     :     36.17s CPU     41.80s WALL (      15 calls)
     v_of_rho     :    301.51s CPU    328.56s WALL (      16 calls)
     newd         :     14.20s CPU     19.90s WALL (      16 calls)
     PAW_pot      :      2.01s CPU      2.01s WALL (      16 calls)
     mix_rho      :    103.83s CPU    108.65s WALL (      15 calls)
     vdW_kernel   :     33.46s CPU     33.46s WALL (       1 calls)

     Called by c_bands:
     init_us_2    :      1.30s CPU      1.33s WALL (      31 calls)
     regterg      :     62.19s CPU     63.05s WALL (      15 calls)

     Called by *egterg:
     rdiaghg      :      0.01s CPU      0.02s WALL (      77 calls)
     h_psi        :     57.30s CPU     57.33s WALL (      78 calls)
     s_psi        :      1.49s CPU      1.49s WALL (      78 calls)
     g_psi        :      0.19s CPU      0.19s WALL (      62 calls)

     Called by h_psi:
     h_psi:calbec :      1.20s CPU      1.20s WALL (      78 calls)
     vloc_psi     :     54.28s CPU     54.29s WALL (      78 calls)
     add_vuspsi   :      1.50s CPU      1.50s WALL (      78 calls)

     General routines
     calbec       :      1.58s CPU      1.58s WALL (      97 calls)
     fft          :    261.43s CPU    261.46s WALL (    2873 calls)
     ffts         :     44.79s CPU     44.80s WALL (     503 calls)
     fftw         :     53.45s CPU     53.46s WALL (     598 calls)
 
     Parallel routines
 
     PWSCF        :  18m 0.38s CPU  19m42.84s WALL

 
   This run was terminated on:   9:58: 9   4Jan2023            

=------------------------------------------------------------------------------=
   JOB DONE.
=------------------------------------------------------------------------------=
