
     Program PWSCF v.6.7MaX starts on 20Dec2022 at 16:20:33 

     This program is part of the open-source Quantum ESPRESSO suite
     for quantum simulation of materials; please cite
         "P. Giannozzi et al., J. Phys.:Condens. Matter 21 395502 (2009);
         "P. Giannozzi et al., J. Phys.:Condens. Matter 29 465901 (2017);
          URL http://www.quantum-espresso.org", 
     in publications or presentations arising from this work. More details at
     http://www.quantum-espresso.org/quote

     Parallel version (MPI), running on     1 processors

     MPI processes distributed on     1 nodes
     Reading input from chch-gas-ensemble.in
Warning: card &CELL ignored
Warning: card / ignored

     Current dimensions of program PWSCF are:
     Max number of different atomic species (ntypx) = 10
     Max number of k-points (npk) =  40000
     Max angular momentum in pseudopotentials (lmaxx) =  3
     file C.pbe-n-kjpaw_psl.1.0.0.UPF: wavefunction(s)  2S 2P renormalized
     file H.pbe-kjpaw_psl.1.0.0.UPF: wavefunction(s)  1S renormalized

     **************************************************************************
     Initializing libbeef V0.1.2 with the BEEF-vdW functional.
     Citation: Wellendorff et al., PRB 85, 235149 (2012).
     **************************************************************************


     IMPORTANT: XC functional enforced from input :
     Exchange-correlation= BEEF-VDW
                           (   1   4  43  14   2   0   0)
     Any further DFT definition will be discarded
     Please, verify this is what you really want


     gamma-point specific algorithms are used

     Subspace diagonalization in iterative solution of the eigenvalue problem:
     a serial algorithm will be used

 
     G-vector sticks info
     --------------------
     sticks:   dense  smooth     PW     G-vecs:    dense   smooth      PW
     Sum       31379   31379   7843              4061561  4061561  507579
 


     bravais-lattice index     =            0
     lattice parameter (alat)  =      42.8379  a.u.
     unit-cell volume          =   64686.2532 (a.u.)^3
     number of atoms/cell      =            4
     number of atomic types    =            2
     number of electrons       =        10.00
     number of Kohn-Sham states=            9
     kinetic-energy cutoff     =      60.0000  Ry
     charge density cutoff     =     240.0000  Ry
     scf convergence threshold =      1.0E-06
     mixing beta               =       0.7000
     number of iterations used =            8  local-TF  mixing
     Exchange-correlation= BEEF-VDW
                           (   1   4  43  14   2   0   0)

     celldm(1)=  42.837879  celldm(2)=   0.000000  celldm(3)=   0.000000
     celldm(4)=   0.000000  celldm(5)=   0.000000  celldm(6)=   0.000000

     crystal axes: (cart. coord. in units of alat)
               a(1) = (   1.000000   0.000000   0.000000 )  
               a(2) = (   0.000000   0.895383   0.000000 )  
               a(3) = (   0.000000   0.000000   0.919008 )  

     reciprocal axes: (cart. coord. in units 2 pi/alat)
               b(1) = (  1.000000  0.000000  0.000000 )  
               b(2) = (  0.000000  1.116840  0.000000 )  
               b(3) = (  0.000000  0.000000  1.088130 )  


     PseudoPot. # 1 for C  read from file:
     /users/bkreitz1/quantum-espresso/potentials/C.pbe-n-kjpaw_psl.1.0.0.UPF
     MD5 check sum: a169b0ebad56f5ec0d79c4633f80bf22
     Pseudo is Projector augmented-wave + core cor, Zval =  4.0
     Generated using 'atomic' code by A. Dal Corso  v.6.7MaX
     Shape of augmentation charge: PSQ
     Using radial grid of 1073 points,  4 beta functions with: 
                l(1) =   0
                l(2) =   0
                l(3) =   1
                l(4) =   1
     Q(r) pseudized with 0 coefficients 


     PseudoPot. # 2 for H  read from file:
     /users/bkreitz1/quantum-espresso/potentials/H.pbe-kjpaw_psl.1.0.0.UPF
     MD5 check sum: ae98473e6dc62675f0d0baffdab24f65
     Pseudo is Projector augmented-wave, Zval =  1.0
     Generated using 'atomic' code by A. Dal Corso  v.6.7MaX
     Shape of augmentation charge: PSQ
     Using radial grid of  929 points,  2 beta functions with: 
                l(1) =   0
                l(2) =   0
     Q(r) pseudized with 0 coefficients 


     atomic species   valence    mass     pseudopotential
        C              4.00    12.01100     C ( 1.00)
        H              1.00     1.00800     H ( 1.00)

     No symmetry found



   Cartesian axes

     site n.     atom                  positions (alat units)
         1           C   tau(   1) = (   0.4736440   0.4474582   0.4592909  )
         2           C   tau(   2) = (   0.5266904   0.4473890   0.4593315  )
         3           H   tau(   3) = (   0.4268165   0.4479560   0.4596035  )
         4           H   tau(   4) = (   0.5735113   0.4479127   0.4602154  )

     number of k points=     1  Gaussian smearing, width (Ry)=  0.0050
                       cart. coord. in units 2pi/alat
        k(    1) = (   0.0000000   0.0000000   0.0000000), wk =   2.0000000

     Dense  grid:  2030781 G-vectors     FFT dimensions: ( 216, 192, 200)

     Estimated max dynamical RAM per process >       2.99 GB

     Initial potential from superposition of free atoms

     starting charge    9.99990, renormalised to   10.00000

     negative rho (up, down):  7.044E-03 0.000E+00


     %%%%%%%%%%%%%%%%%%%%%%%%%%%%%%%%%%%%%%%%%%%%%%%%%%%%%%%%%%%%%%%%%%%%%%%%
     %                                                                      %
     % You are using vdW-DF, which was implemented by the Thonhauser group. %
     % Please cite the following two papers that made this development      %
     % possible and the two reviews that describe the various versions:     %
     %                                                                      %
     %   T. Thonhauser et al., PRL 115, 136402 (2015).                      %
     %   T. Thonhauser et al., PRB 76, 125112 (2007).                       %
     %   K. Berland et al., Rep. Prog. Phys. 78, 066501 (2015).             %
     %   D.C. Langreth et al., J. Phys.: Condens. Matter 21, 084203 (2009). %
     %                                                                      %
     %                                                                      %
     % If you are calculating the stress with vdW-DF, please also cite:     %
     %                                                                      %
     %   R. Sabatini et al., J. Phys.: Condens. Matter 24, 424209 (2012).   %
     %                                                                      %
     %%%%%%%%%%%%%%%%%%%%%%%%%%%%%%%%%%%%%%%%%%%%%%%%%%%%%%%%%%%%%%%%%%%%%%%%


     Starting wfcs are   10 randomized atomic wfcs
     Checking if some PAW data can be deallocated... 

     total cpu time spent up to now is       68.5 secs

     Self-consistent Calculation

     iteration #  1     ecut=    60.00 Ry     beta= 0.70
     CG style diagonalization
     ethr =  1.00E-02,  avg # of iterations =  3.6

     negative rho (up, down):  5.431E-03 0.000E+00

     total cpu time spent up to now is      108.6 secs

     total energy              =     -40.26860927 Ry
     estimated scf accuracy    <       0.69433403 Ry

     iteration #  2     ecut=    60.00 Ry     beta= 0.70
     CG style diagonalization
     ethr =  6.94E-03,  avg # of iterations =  3.0

     negative rho (up, down):  3.266E-03 0.000E+00

     total cpu time spent up to now is      146.6 secs

     total energy              =     -40.23535241 Ry
     estimated scf accuracy    <       0.15482885 Ry

     iteration #  3     ecut=    60.00 Ry     beta= 0.70
     CG style diagonalization
     ethr =  1.55E-03,  avg # of iterations =  4.0

     negative rho (up, down):  5.472E-03 0.000E+00

     total cpu time spent up to now is      187.6 secs

     total energy              =     -40.26388563 Ry
     estimated scf accuracy    <       0.02098986 Ry

     iteration #  4     ecut=    60.00 Ry     beta= 0.70
     CG style diagonalization
     ethr =  2.10E-04,  avg # of iterations =  4.4

     negative rho (up, down):  2.539E-02 0.000E+00

     total cpu time spent up to now is      230.3 secs

     total energy              =     -40.26198302 Ry
     estimated scf accuracy    <       0.01908154 Ry

     iteration #  5     ecut=    60.00 Ry     beta= 0.70
     CG style diagonalization
     ethr =  1.91E-04,  avg # of iterations =  3.3

     negative rho (up, down):  8.895E-02 0.000E+00

     total cpu time spent up to now is      270.4 secs

     total energy              =     -40.26080348 Ry
     estimated scf accuracy    <       0.00761554 Ry

     iteration #  6     ecut=    60.00 Ry     beta= 0.70
     CG style diagonalization
     ethr =  7.62E-05,  avg # of iterations =  4.7

     negative rho (up, down):  9.353E-02 0.000E+00

     total cpu time spent up to now is      313.8 secs

     total energy              =     -40.26338628 Ry
     estimated scf accuracy    <       0.00205546 Ry

     iteration #  7     ecut=    60.00 Ry     beta= 0.70
     CG style diagonalization
     ethr =  2.06E-05,  avg # of iterations =  3.3

     negative rho (up, down):  6.800E-02 0.000E+00

     total cpu time spent up to now is      353.4 secs

     total energy              =     -40.26170506 Ry
     estimated scf accuracy    <       0.00168422 Ry

     iteration #  8     ecut=    60.00 Ry     beta= 0.70
     CG style diagonalization
     ethr =  1.68E-05,  avg # of iterations =  5.1

     negative rho (up, down):  5.508E-02 0.000E+00

     total cpu time spent up to now is      396.9 secs

     total energy              =     -40.26184957 Ry
     estimated scf accuracy    <       0.00094154 Ry

     iteration #  9     ecut=    60.00 Ry     beta= 0.70
     CG style diagonalization
     ethr =  9.42E-06,  avg # of iterations =  3.7

     negative rho (up, down):  3.621E-02 0.000E+00

     total cpu time spent up to now is      436.7 secs

     total energy              =     -40.26133811 Ry
     estimated scf accuracy    <       0.00056807 Ry

     iteration # 10     ecut=    60.00 Ry     beta= 0.70
     CG style diagonalization
     ethr =  5.68E-06,  avg # of iterations =  5.0

     negative rho (up, down):  2.299E-02 0.000E+00

     total cpu time spent up to now is      479.2 secs

     total energy              =     -40.26146499 Ry
     estimated scf accuracy    <       0.00025180 Ry

     iteration # 11     ecut=    60.00 Ry     beta= 0.70
     CG style diagonalization
     ethr =  2.52E-06,  avg # of iterations =  4.4

     negative rho (up, down):  2.130E-02 0.000E+00

     total cpu time spent up to now is      520.5 secs

     total energy              =     -40.26153975 Ry
     estimated scf accuracy    <       0.00003375 Ry

     iteration # 12     ecut=    60.00 Ry     beta= 0.70
     CG style diagonalization
     ethr =  3.38E-07,  avg # of iterations =  3.3

     negative rho (up, down):  1.722E-02 0.000E+00

     total cpu time spent up to now is      558.8 secs

     total energy              =     -40.26155667 Ry
     estimated scf accuracy    <       0.00001117 Ry

     iteration # 13     ecut=    60.00 Ry     beta= 0.70
     CG style diagonalization
     ethr =  1.12E-07,  avg # of iterations =  3.0

     negative rho (up, down):  1.440E-02 0.000E+00

     total cpu time spent up to now is      596.7 secs

     total energy              =     -40.26156597 Ry
     estimated scf accuracy    <       0.00000418 Ry

     iteration # 14     ecut=    60.00 Ry     beta= 0.70
     CG style diagonalization
     ethr =  4.18E-08,  avg # of iterations =  3.8

     negative rho (up, down):  1.303E-02 0.000E+00

     total cpu time spent up to now is      628.3 secs

     End of self-consistent calculation

          k = 0.0000 0.0000 0.0000 (253790 PWs)   bands (ev):

   -19.0258 -14.4266 -12.5639  -7.3786  -7.3785  -0.6476  -0.6343  -0.6312
    -0.3886

     the Fermi energy is    -4.9799 ev

!    total energy              =     -40.26156658 Ry

     total all-electron energy =      -155.789752 Ry
     estimated scf accuracy    <       0.00000100 Ry
     smearing contrib. (-TS)   =      -0.00000000 Ry
     internal energy E=F+TS    =     -40.26156658 Ry

     The total energy is F=E-TS. E is the sum of the following terms:
     one-electron contribution =     -73.16381521 Ry
     hartree contribution      =      37.83426736 Ry
     xc contribution           =     -10.91214791 Ry
     ewald contribution        =      19.08558604 Ry
     one-center paw contrib.   =     -13.10545686 Ry

     convergence has been achieved in  14 iterations

     negative rho (up, down):  1.303E-02 0.000E+00

     Forces acting on atoms (cartesian axes, Ry/au):

     atom    1 type  1   force =    -0.00109311    0.00086571    0.00081309
     atom    2 type  1   force =     0.00108593    0.00143765    0.00171713
     atom    3 type  2   force =     0.00029269   -0.00109821   -0.00109058
     atom    4 type  2   force =    -0.00028551   -0.00120514   -0.00143964

     Total force =     0.003858     Total SCF correction =     0.000903
     SCF correction compared to forces is large: reduce conv_thr to get better values

     negative rho (up, down):  1.303E-02 0.000E+00

     negative rho (up, down):  1.303E-02 0.000E+00

     negative rho (up, down):  1.303E-02 0.000E+00

     negative rho (up, down):  1.303E-02 0.000E+00

     negative rho (up, down):  1.303E-02 0.000E+00

     negative rho (up, down):  1.303E-02 0.000E+00

     negative rho (up, down):  1.303E-02 0.000E+00

     negative rho (up, down):  1.303E-02 0.000E+00

     negative rho (up, down):  1.303E-02 0.000E+00

     negative rho (up, down):  1.303E-02 0.000E+00

     negative rho (up, down):  1.303E-02 0.000E+00

     negative rho (up, down):  1.303E-02 0.000E+00

     negative rho (up, down):  1.303E-02 0.000E+00

     negative rho (up, down):  1.303E-02 0.000E+00

     negative rho (up, down):  1.303E-02 0.000E+00

     negative rho (up, down):  1.303E-02 0.000E+00

     negative rho (up, down):  1.303E-02 0.000E+00

     negative rho (up, down):  1.303E-02 0.000E+00

     negative rho (up, down):  1.303E-02 0.000E+00

     negative rho (up, down):  1.303E-02 0.000E+00

     negative rho (up, down):  1.303E-02 0.000E+00

     negative rho (up, down):  1.303E-02 0.000E+00

     negative rho (up, down):  1.303E-02 0.000E+00

     negative rho (up, down):  1.303E-02 0.000E+00

     negative rho (up, down):  1.303E-02 0.000E+00

     negative rho (up, down):  1.303E-02 0.000E+00

     negative rho (up, down):  1.303E-02 0.000E+00

     negative rho (up, down):  1.303E-02 0.000E+00

     negative rho (up, down):  1.303E-02 0.000E+00

     negative rho (up, down):  1.303E-02 0.000E+00

     negative rho (up, down):  1.303E-02 0.000E+00

     negative rho (up, down):  1.303E-02 0.000E+00

     negative rho (up, down):  1.303E-02 0.000E+00

     negative rho (up, down):  1.303E-02 0.000E+00
 BEEFens 2000 ensemble energies
             -0.840904752894489E+00
             -0.260777887457107E-01
             -0.164125128793492E+00
              0.567507016988057E+00
             -0.268833369975257E+00
             -0.187528617371965E+00
             -0.623079185734732E+00
             -0.125980389630244E+01
             -0.405939157222038E+00
             -0.450954504355940E+00
             -0.464157231731974E+00
              0.827557192341438E-01
              0.465813208067989E-01
             -0.822221339147897E-01
              0.524981832341336E-01
              0.602536671195556E+00
             -0.245708815214518E+00
             -0.952332780808989E-01
              0.332430048447648E+00
             -0.140721469999104E+01
              0.718671481082495E+00
             -0.232914745519972E+00
             -0.837110023024909E-01
             -0.107786497239077E+00
              0.560136211543574E-01
             -0.532107788292713E-01
              0.112427341362176E+01
             -0.321790991068270E+00
             -0.894464593013584E-01
             -0.730769033577662E+00
              0.849175441395337E+00
             -0.211985202959859E-01
             -0.542012685871050E+00
              0.208002078653975E+00
             -0.389437828006298E-01
              0.401414136375077E+00
              0.371527183097875E-01
             -0.243077703742500E-01
              0.520702127746004E+00
             -0.125917194436436E+01
              0.703579105159486E+00
              0.149344150676837E+00
             -0.184430675952787E+00
             -0.362830973196809E+00
              0.159960901032280E+00
             -0.239056053349085E+00
              0.669524603106127E+00
              0.445135666091700E+00
             -0.218849294258985E+00
             -0.419368533042187E+00
             -0.409036692196771E+00
             -0.485728344672799E+00
              0.319013387045390E+00
             -0.670035233936416E+00
              0.215241102083681E+00
              0.779193542157650E+00
              0.986376601751504E+00
              0.401328042324661E+00
              0.202666693886368E+00
              0.426882768742028E+00
              0.117319875997860E+01
              0.194199140526056E+00
             -0.702700607285940E+00
             -0.108717917592370E+00
             -0.392998713596554E+00
              0.795092017324461E+00
             -0.899354709029987E+00
             -0.753773964289066E+00
             -0.459090142355244E+00
             -0.273909915224728E+00
             -0.472161915990657E+00
              0.358911014560514E+00
              0.181854353002587E+00
              0.211329524732464E+00
             -0.494960054316448E+00
             -0.454750656806595E+00
             -0.762641982699404E+00
              0.389138814755339E+00
             -0.455295291393932E+00
              0.426907539458022E+00
             -0.115712623787359E+00
             -0.353331801753283E+00
             -0.616103359307495E+00
             -0.186622513231113E+00
             -0.228114153304922E+00
             -0.177579888554167E+00
              0.493165524266213E+00
              0.102153210873149E+01
             -0.591873869558394E+00
             -0.100686937823609E+01
             -0.225857634649957E+00
              0.138190615647352E+01
             -0.720910821509064E+00
              0.392548898074669E+00
             -0.149470635041823E+00
             -0.737641481017373E+00
              0.350120780095233E+00
              0.362820368736562E+00
             -0.192517867892072E+00
              0.351661318144045E+00
             -0.310456255366084E+00
             -0.810422406515025E+00
              0.132538456440816E+01
              0.585001962536469E+00
              0.240654840427596E+00
              0.159456042928597E+00
              0.307798677762398E+00
              0.103058426287032E+01
             -0.340472486633450E+00
              0.271446545002384E-01
             -0.175904019803711E+01
              0.214661962826455E+00
             -0.840322003557852E+00
              0.155294569505976E+00
              0.275899352780321E+00
             -0.478508100476787E+00
             -0.631483819391781E+00
              0.240799846648940E-01
             -0.401999019403541E+00
              0.591575237446541E+00
             -0.569244580721434E+00
             -0.130472691826315E+00
             -0.494775252904346E+00
             -0.395262839978168E-01
              0.777623075764096E-01
              0.317019922584944E+00
              0.941212358455346E-03
             -0.731821702742685E-01
              0.871225943440830E+00
              0.117813769130074E+01
              0.643729306292318E+00
              0.791816884036030E+00
             -0.167682814640214E+00
              0.960153693001282E-01
              0.644633976040393E+00
              0.103442829771593E+00
             -0.973893797671259E+00
             -0.583711415241722E+00
             -0.624911518682684E+00
             -0.374641621688077E+00
              0.322208754643136E+00
             -0.156630358288509E+01
             -0.149794362217439E+00
              0.603589840017516E+00
             -0.518685403457336E+00
             -0.364464237988267E+00
              0.756081810814826E+00
              0.637167232899301E+00
             -0.353426258246528E+00
              0.465121244497308E+00
             -0.325182380669940E+00
              0.486550305902816E+00
              0.848585938780451E-01
              0.110446477516516E+00
             -0.103313213240240E+01
             -0.602747677787447E+00
             -0.109015279392855E+00
             -0.602781098556269E-01
             -0.548146745891556E+00
              0.143783148876324E+01
             -0.115525337457544E+00
             -0.328687270112350E+00
              0.492267216220929E+00
             -0.555557782886976E+00
             -0.498709599372726E+00
              0.423009937187775E+00
              0.162918353813744E+00
              0.126770210034162E+00
              0.225898464013674E+00
             -0.136201719189692E+00
              0.985376520466832E-01
              0.735946603334581E+00
             -0.329233603667834E+00
              0.289761800715586E+00
              0.112943532474829E+01
              0.406409484216968E+00
             -0.383373131171911E-01
             -0.277017857213417E+00
              0.199064462804488E+01
             -0.345267687007517E+00
              0.515582078245234E+00
              0.418415869431264E+00
              0.328491016192334E+00
              0.119135546507435E+01
              0.577860105094978E+00
             -0.648516873789962E-01
              0.334365236832733E+00
              0.687182048675179E+00
              0.488004952520629E+00
             -0.795191920033094E+00
              0.121237199951154E+01
             -0.110103379657375E+01
             -0.116855440637485E+00
              0.707326130484299E+00
              0.254760410452940E+00
              0.772128733814306E-01
              0.328288251968409E+00
              0.183808729776716E+00
              0.402338296177053E+00
             -0.796242466573890E+00
              0.428486921271549E-01
             -0.288867560094174E+00
             -0.610626022662849E-01
             -0.493210659235768E-01
             -0.185255864220175E+00
             -0.879088412762137E-01
              0.106150156649975E+01
             -0.538742647229600E-01
             -0.366855872740008E+00
             -0.115435812719773E-01
              0.187545158320336E+00
             -0.836575397281194E+00
             -0.749942696504342E+00
             -0.423881548137680E+00
             -0.812547383915488E+00
             -0.250278739896293E+00
             -0.510947627375059E+00
              0.226795700267306E+00
              0.351069184712300E-01
             -0.170818602379180E+00
             -0.995535603971374E-01
              0.588702769952270E-01
             -0.142876792606817E+00
              0.832337581655236E+00
             -0.114138006166326E+01
             -0.166927851194792E+00
             -0.158464134894414E+00
              0.187791479418456E+00
              0.299691655527968E+00
             -0.668127336863131E+00
             -0.143976436545846E+00
              0.573692705303132E+00
             -0.235416399139862E+00
              0.170943276561618E+00
              0.414343519087436E+00
             -0.781569143846905E-02
              0.147530970726749E+01
             -0.109351131215031E+00
             -0.443898090666518E+00
             -0.177038085985819E-01
             -0.375387047712181E+00
              0.696227713923594E+00
             -0.655301721743600E+00
              0.194959847345016E+00
              0.599566857253414E+00
             -0.155101742706257E+00
              0.150775085206561E+01
              0.163121973800304E+01
             -0.917706288729859E+00
              0.741004635359582E+00
              0.325105887063802E+00
             -0.729005531419954E+00
              0.217205477228267E+00
              0.575124380189664E+00
              0.620747214857993E+00
              0.617967758369180E-01
              0.254725383320942E+00
              0.969007911479424E+00
             -0.297641838911798E+00
              0.104019676116296E+00
              0.830962696690277E+00
             -0.453507798552642E+00
             -0.337134296320559E+00
              0.784552259872966E+00
              0.400957015301385E+00
              0.980922558895719E+00
              0.459279558971540E+00
              0.192771954623946E+00
              0.306262498900681E+00
              0.556218027932929E+00
             -0.697336964617139E+00
              0.110379594584509E+00
              0.394694924292496E+00
              0.142113488636097E+00
              0.321961155070353E+00
             -0.809582133313048E+00
              0.407898082652189E+00
             -0.550584463618029E+00
             -0.401621425161749E+00
              0.266367083465598E+00
             -0.895167895611813E-01
              0.792600129360094E+00
             -0.149260078030101E+00
              0.380407753217225E+00
              0.378759833832036E+00
              0.978005763297400E+00
              0.661670679498854E+00
              0.661561631190952E+00
             -0.308474376001522E-02
             -0.166058239709576E+00
             -0.372363097087235E+00
              0.106955403580817E+01
              0.106336025262314E+01
              0.512362734491784E+00
             -0.380322502789564E+00
              0.629802536454364E+00
              0.324188263824010E-01
              0.199339471122088E+00
              0.907009404885130E+00
             -0.356198719569989E-01
             -0.125744638410116E+00
             -0.251069156780455E+00
             -0.815984184779692E+00
              0.124261108833242E+01
              0.682905772228244E+00
             -0.855356307431337E+00
             -0.297495827174111E+00
              0.307692546311744E+00
             -0.127434627783423E+00
              0.850720725692823E+00
              0.199134879975638E+00
              0.104731716186284E+01
              0.407138588184552E+00
             -0.280871806016454E+00
              0.214486606686588E+00
             -0.952459327143780E-01
             -0.305986071997626E+00
              0.221797820715211E+00
              0.193467913829588E+00
              0.116834244257916E+01
              0.971056292405005E+00
              0.745816197975028E+00
              0.851825844676480E+00
              0.896875134677841E-01
             -0.328994579708861E+00
              0.170149072015981E+00
             -0.415488164237670E+00
             -0.742534492638121E+00
             -0.712374910134786E+00
             -0.421519631619207E+00
             -0.138599252376784E+01
             -0.501537451144837E+00
             -0.111584087328304E+01
              0.275927774422736E+00
             -0.570654368688853E+00
              0.680751067224836E+00
             -0.127948465207117E+01
             -0.381393974052287E+00
              0.461839091743562E+00
              0.279845029514678E+00
             -0.118364806133214E+01
              0.659107289501295E+00
             -0.369573239829533E+00
              0.712354934693652E+00
             -0.337956142428872E+00
             -0.100718218836231E+01
              0.228413244371885E+00
             -0.843434359414454E+00
             -0.797732811349894E-02
             -0.275626010172811E-01
              0.520543885669242E+00
              0.161712915123583E+01
             -0.544243536768485E+00
             -0.483834066628957E+00
             -0.101670007230010E+00
             -0.831191592368343E-01
             -0.102752638041917E+01
             -0.721230547212217E+00
              0.636191052531687E+00
             -0.208602251012016E+00
              0.309333831934812E+00
             -0.628564000302147E+00
             -0.207951582679556E+00
             -0.533741112311217E+00
              0.609779528267131E+00
              0.147696830362168E+00
             -0.320706520352346E+00
             -0.244787996301054E+00
              0.182743413129059E+00
             -0.872207608979001E-01
              0.502671349139832E+00
             -0.342380585438645E+00
              0.163394887734849E+00
              0.445861186414539E+00
              0.146142391328488E+00
             -0.322481774783153E+00
              0.198983651832261E+01
              0.781075632337141E+00
              0.139152460524434E+00
              0.736950393788405E-01
             -0.775295241389777E+00
              0.433364831879020E+00
             -0.101749274183952E+01
             -0.460055220425781E+00
             -0.783405397989971E+00
             -0.236071256431425E+00
              0.773565673609951E+00
             -0.751237679746126E+00
              0.365362641834688E+00
             -0.644075111837363E-01
              0.934421056939150E-02
             -0.386726566371736E+00
             -0.528599743458583E+00
             -0.104020788199831E+00
             -0.394846278885528E+00
             -0.279508808723465E+00
             -0.506333032208425E+00
             -0.579969006167829E-01
             -0.399739696421079E+00
             -0.616188537904434E+00
              0.261797459892077E+00
             -0.131481551337555E+00
              0.321277096415549E+00
              0.102320225844581E+00
             -0.982691327141855E+00
             -0.640778467201686E+00
             -0.672243595849514E+00
              0.387586129633988E+00
             -0.994148699683213E-01
             -0.778355092857719E+00
              0.731738883865617E+00
             -0.548453016663094E+00
              0.773182656433928E+00
             -0.403715089608779E+00
             -0.627824072788634E+00
              0.308112152952539E+00
             -0.941726080196763E+00
             -0.390190037876406E+00
              0.734730775892394E+00
              0.267744528440184E+00
             -0.573117534711511E+00
              0.724198993340655E+00
             -0.204595126889513E+00
             -0.481263285221600E+00
             -0.379370212128153E+00
             -0.680622231024105E+00
              0.340475958822744E+00
             -0.111581070103946E+01
             -0.961209790952746E+00
             -0.100349336845527E+00
             -0.373658140727683E+00
             -0.790073865426849E+00
              0.993282082107395E+00
              0.178804967094421E+01
             -0.250158499133590E+00
             -0.542495661018307E-01
             -0.761965612197359E+00
              0.860353090641491E+00
              0.283167593484584E+00
             -0.269917061991235E+00
             -0.458418952087016E+00
              0.180518073143631E+00
             -0.756411613058303E+00
             -0.129586445939230E+00
             -0.109149023141442E+01
              0.430271317224594E+00
              0.132782369936305E+00
             -0.785004330171573E-01
             -0.169812114276738E+00
             -0.557314221344944E+00
             -0.187276707218276E+00
              0.177942023821786E+01
             -0.199491998082599E+00
             -0.634072793323201E+00
             -0.898893522013385E+00
              0.184930135881224E+00
             -0.503365594124050E+00
              0.133765906715374E+00
              0.436220349525278E+00
              0.627548574849621E-01
              0.477707879276663E+00
              0.247370756145362E+00
              0.757504042439443E+00
              0.304314928653925E+00
             -0.478907269765194E+00
              0.733082846870626E+00
              0.437119075647309E+00
              0.162795871916420E+00
              0.460032548041927E+00
             -0.425958232387087E+00
              0.913767952555263E+00
              0.352900644877690E+00
             -0.455878401272403E+00
             -0.678758230331472E-01
             -0.210943020476403E+00
              0.186751128852536E+00
             -0.320691430910115E+00
             -0.174650943928858E+00
             -0.168034127695526E+00
              0.104777875488730E+01
              0.759297416738264E+00
             -0.812434982406350E+00
             -0.111886610710043E+00
             -0.632023221673753E+00
             -0.164045540235602E+00
             -0.264827244124213E+00
              0.150377102454898E+00
             -0.419446534013657E-01
             -0.375049481772163E+00
              0.237132289385996E+00
             -0.122964157647299E+00
             -0.790861852880558E-01
              0.112593608365914E+01
              0.182343351335161E+00
             -0.109335505798954E+01
             -0.482866222480038E+00
              0.124986865602795E+01
              0.298355740865341E+00
             -0.108909700726143E+00
              0.142218334561838E+01
             -0.205388942947573E+00
             -0.951978249921868E-01
             -0.166632732942256E+00
              0.206235895245916E+00
              0.445400340716045E+00
              0.282773858052203E-01
              0.366588402356433E+00
             -0.136667288844668E+00
             -0.531108257049689E+00
             -0.506416437710828E+00
             -0.617869942534692E+00
              0.517910903700252E+00
              0.188622893552246E+00
              0.484280564244010E+00
              0.209790995858852E+00
              0.117049431887129E+01
              0.263920747472654E+00
             -0.991535026390871E+00
             -0.423032526287407E+00
              0.178930940726403E-01
             -0.358706996304385E+00
              0.824263555040104E+00
             -0.203307093444423E+00
              0.215636950172250E+00
              0.721870376064710E+00
             -0.105805256153170E+01
              0.189986551751769E+01
              0.254684971147221E+00
              0.310942061088097E+00
              0.495779166128633E+00
              0.287357175748078E-01
             -0.301271521741198E-01
              0.407248646898998E+00
             -0.450574012895342E+00
              0.113460002707391E+01
              0.989575277170195E+00
             -0.498070003035862E+00
              0.213708069481791E+00
              0.931655965327957E+00
             -0.273575753153432E+00
              0.278476611588176E+00
              0.405499321543554E+00
              0.530363972281433E+00
             -0.946749152743825E+00
             -0.597919288749456E-01
             -0.320911824641500E+00
             -0.786794063392833E-01
             -0.921397279045529E-01
              0.110340557146611E+00
             -0.158589345745740E+00
             -0.390292059084107E+00
              0.229151830429839E+00
              0.700932028533114E-01
              0.682811183204299E+00
             -0.607133040479660E+00
              0.605943155954142E+00
              0.661853651153231E+00
             -0.953229049646858E-01
              0.941355602443255E+00
             -0.868631930970119E+00
             -0.133469031023949E+01
             -0.113361132301408E+00
             -0.870554894612887E-01
             -0.578808381977591E-02
              0.101210565316966E+01
             -0.462253085391495E-03
              0.556305488990835E+00
              0.786787512981993E+00
              0.511717016716693E+00
             -0.818965611556202E-01
              0.757566318679184E+00
             -0.220504387534231E+00
             -0.512754287607510E+00
             -0.436936810456250E+00
              0.142035458649909E+00
              0.437714237683185E+00
             -0.298541716605942E-01
              0.425069886496974E+00
              0.276357127306293E-02
              0.705410607413327E+00
              0.204433257464702E+00
              0.105703577293233E+00
              0.225837869965311E-01
              0.372144176877691E+00
              0.533416030895813E+00
              0.183133074181404E+00
             -0.482714112239364E-01
             -0.701079961155187E+00
              0.390977790030723E+00
              0.271125693882840E+00
              0.417938066565332E+00
              0.381603795494726E+00
              0.472231576371046E+00
             -0.122543283551271E+00
              0.452117321618435E+00
             -0.392888118801654E+00
             -0.190716423473170E-01
             -0.679240972445875E+00
             -0.455195906358561E+00
              0.561779050423026E+00
             -0.113563749688318E+01
              0.301059779659814E+00
              0.177248883722492E+00
              0.112526538177456E+01
             -0.142264906232398E+00
              0.430701122416467E+00
             -0.151871782207757E+00
             -0.645587415784479E+00
             -0.840176791367133E+00
             -0.210237076698789E+00
             -0.117743048287238E+01
              0.943489886205819E-01
             -0.266545520175669E+00
              0.426620064828182E+00
              0.330031694564808E+00
             -0.378603284663093E+00
             -0.396658752908216E+00
              0.561213309350288E+00
             -0.738853367854484E+00
             -0.181718106592866E+00
             -0.205545603605369E+00
              0.353820360491020E+00
              0.811723840912499E-01
              0.517287057628171E-01
             -0.184114059502775E+00
              0.693637477502605E+00
             -0.800067332787320E+00
              0.831279862954135E-01
              0.780701541263892E+00
             -0.476416367457470E+00
              0.517924157677281E-01
              0.308284455513892E-01
             -0.832421892707200E+00
             -0.478496554335935E+00
             -0.108508835169870E-01
              0.413392604703115E+00
              0.458739842431819E+00
              0.581579487508277E-01
             -0.165727148667040E+00
              0.213964959631900E+00
             -0.512270487376668E+00
             -0.672144704720541E-01
             -0.679982716006595E+00
             -0.345006681819990E+00
              0.655514915119332E+00
             -0.394829418361403E+00
              0.916887196141294E+00
             -0.305871045170192E+00
              0.422073713235597E+00
              0.329853207692378E+00
             -0.770151041346358E+00
             -0.319961952254403E+00
              0.132542638056399E+00
             -0.553968171372351E+00
             -0.542199168401839E+00
             -0.116401719838703E+01
             -0.713987358128625E+00
             -0.637290057303208E+00
             -0.586170480999685E+00
              0.909491100549609E-03
              0.339168198890509E+00
              0.164923787909009E+00
              0.372114269308578E+00
             -0.762858850456712E+00
              0.168052815020698E+00
              0.384754519068583E+00
             -0.888477677388391E+00
             -0.726172825689333E+00
             -0.507382519835730E+00
             -0.443337004415840E+00
              0.176250398416580E+00
             -0.427590266299500E-01
             -0.532550159415249E+00
              0.349569327364715E+00
             -0.303987248266926E+00
              0.678252818324484E+00
             -0.114303700170729E+01
              0.838099662014207E+00
             -0.167256096559668E+00
             -0.577844430587409E+00
             -0.358528645805562E+00
             -0.209121631598028E-01
              0.641339702090358E+00
             -0.893190299984520E+00
             -0.163871123391428E+00
             -0.211157112077520E+00
              0.518942560284358E+00
              0.103204994146442E+01
             -0.130818641561750E+01
              0.118567044768667E+01
              0.483433220606464E+00
             -0.989119443541056E+00
             -0.399615104368245E+00
              0.102676785990774E+01
              0.729925865013426E+00
             -0.272774442022786E+00
             -0.943011778430858E-01
              0.246719437670269E+00
              0.101801186855098E+01
             -0.778434251402475E+00
              0.160804238575512E+00
             -0.102202987613099E+00
              0.330771396840937E+00
             -0.906993930182609E+00
             -0.267966972566431E-01
             -0.334198016305811E+00
              0.626084752708771E+00
              0.485213034679204E+00
             -0.116506511847660E+01
             -0.611059969907042E+00
             -0.264233077339346E+00
             -0.576559836148536E+00
             -0.159199142239830E+00
             -0.216895092830406E+00
              0.596970507896699E+00
              0.560569934080483E+00
             -0.123989121514940E-01
             -0.572468116023209E+00
             -0.112031462185007E+01
              0.670641544435941E+00
             -0.589701532638135E+00
             -0.492053264762558E+00
              0.100414815785778E+00
             -0.491745836030500E+00
             -0.523643775999882E+00
             -0.410184023287757E+00
             -0.674956476449052E+00
             -0.304901575079875E+00
             -0.638969659786534E+00
              0.705513888953317E+00
              0.745660691149468E+00
             -0.151579097761450E+00
             -0.258736835209688E+00
              0.491821713977512E-01
              0.540325101808149E+00
             -0.108861833819936E+01
             -0.306366473489767E+00
              0.645677760942714E+00
              0.938257715845303E+00
             -0.117305774336232E+00
              0.124918420769869E+00
              0.680325524330665E+00
              0.191637622656151E+00
              0.335639181269589E-01
             -0.496365886801701E+00
              0.170548302237455E+00
             -0.413779025119952E+00
             -0.814655226227314E-01
             -0.279049332169117E+00
             -0.176488082713854E+00
              0.323166107133360E+00
              0.102005664578656E+01
             -0.105787340950103E+00
              0.194013246714819E-01
             -0.118514285575883E+01
             -0.229887859383409E+00
             -0.459745451261417E+00
             -0.217132893726308E-01
             -0.625947970652875E+00
              0.118681082522310E+01
              0.113350722497654E+01
              0.243400468878456E+00
             -0.312294895336770E+00
              0.244975009801893E+00
              0.256911300802554E+00
             -0.594960448824038E+00
             -0.128161754812036E+00
              0.262543766884522E+00
              0.152942640595728E+00
              0.650767319181320E+00
              0.495039806203761E+00
             -0.267658858751294E+00
              0.264107826476457E+00
             -0.126115293537512E+01
             -0.175907099298259E-01
              0.117039190881629E+01
              0.252044965938300E+00
             -0.407906504338813E-01
              0.335152976057716E+00
             -0.305541327183847E+00
              0.111868960438113E+01
             -0.274260496709737E+00
              0.990879018377380E+00
              0.494711428417750E+00
             -0.583676874698840E+00
              0.435489445936486E+00
             -0.357732842606240E+00
             -0.877159253702417E+00
             -0.106090666137163E+00
             -0.696297940057139E+00
             -0.675212648602740E+00
             -0.164609323412197E-01
              0.494144533718737E+00
             -0.194156690190556E+00
             -0.391394100494871E+00
              0.939537690631420E-01
             -0.838676844377905E+00
             -0.354860885490987E-01
             -0.113306842163355E+01
              0.676691962894459E+00
             -0.535630279993549E-01
             -0.629636569799522E+00
             -0.198087539418625E+00
              0.228702806989167E+00
             -0.501560779338595E+00
             -0.568558489521518E+00
              0.118387230299183E+01
             -0.368056102430162E+00
             -0.475391212188729E+00
              0.427132544697837E+00
             -0.296770670403270E+00
              0.750332796576305E+00
             -0.304632928391477E-01
              0.270611877153000E-01
              0.143344958962294E+01
             -0.967196397943186E-01
             -0.498049195953103E+00
             -0.624214156518498E+00
             -0.660776467275805E+00
             -0.489940416037011E+00
              0.377969472662787E+00
              0.415163354082800E+00
              0.371900910237275E+00
              0.964868206416807E+00
              0.815686555667252E-01
              0.303230509022288E+00
             -0.736725784979339E+00
              0.271676680619795E-01
             -0.192198760868317E+00
             -0.362697095445126E+00
             -0.100822964774764E+00
              0.422671996917837E+00
              0.495410969061555E+00
             -0.342596397625147E-01
              0.177901017992630E+00
              0.350429982563475E+00
              0.441380302072798E+00
             -0.309236431123042E+00
             -0.121559059191060E+00
              0.135367147792476E-02
             -0.343279273051969E+00
             -0.350475850769545E-01
             -0.532700251924421E+00
              0.102794789511143E+01
              0.793635328081248E+00
             -0.247581173802919E+00
              0.220330143833376E+00
             -0.796340028040284E-01
             -0.416567816288393E+00
              0.487514774478858E+00
             -0.118626545156102E+00
              0.474743506633443E+00
             -0.609369448459635E+00
              0.234081896513289E+00
             -0.102825768085914E+00
             -0.697307960758159E+00
             -0.316323109937962E+00
              0.309957592277006E+00
             -0.127836904157641E+01
              0.491109047216196E+00
              0.602044454881475E+00
             -0.132204492834682E+00
             -0.101685221628048E+00
             -0.558096876679994E-01
              0.350328756396583E+00
             -0.444751380704958E+00
              0.393362780562960E+00
              0.419327153972003E+00
             -0.115283650012131E+01
             -0.483404321592572E+00
              0.313112583964394E+00
             -0.162371626177140E+00
              0.646981086998976E+00
             -0.799722783917889E+00
             -0.147408405263622E+00
             -0.514459439602801E+00
             -0.169615815770688E+01
              0.102487983689474E+01
             -0.772537083323586E+00
             -0.878060973165496E+00
              0.760087683292057E-01
              0.166853391209719E+01
              0.993616012154077E-01
             -0.431053836809900E+00
             -0.146919833260464E-01
             -0.459085222758771E-01
             -0.110561593020358E+01
             -0.700789607825434E+00
              0.111399808355122E+01
             -0.164661734992128E+00
             -0.465976948954540E+00
              0.629314088174958E+00
             -0.419385062513056E+00
              0.424113017343346E+00
              0.621236630795177E+00
             -0.673804618278794E+00
             -0.362988024162188E+00
             -0.409780361838681E+00
             -0.229485950288417E+00
             -0.250140582294301E+00
             -0.251317186257149E+00
              0.267155177358653E+00
             -0.461988723106575E+00
              0.360396763217283E+00
              0.705011357285231E+00
             -0.766766872911357E-01
             -0.274714642532834E+00
              0.199755650512679E+00
              0.710575778210725E+00
              0.719306981179667E+00
              0.147526560283240E+00
             -0.145218471999763E+00
             -0.149779666029506E+00
             -0.693675013754935E+00
              0.531758340851654E+00
             -0.319445165653177E+00
              0.300591953579690E+00
             -0.170747580885064E+00
              0.331484529984753E+00
              0.224878938266624E+00
             -0.105792925940172E+01
             -0.324681812974326E+00
             -0.101810540044204E+01
             -0.525916288539299E+00
              0.492584275388215E-01
             -0.259571751128277E+00
              0.463323734785421E+00
             -0.370846224369808E+00
              0.482927545177425E-01
              0.893774152271298E-01
              0.905356377582222E+00
              0.463032386726785E+00
             -0.426172862758102E+00
             -0.337222908564196E-01
              0.197848495958886E+00
              0.478745333270678E+00
             -0.103454039916855E-01
              0.738901274608964E+00
              0.357161006203336E+00
              0.116913217213241E+01
              0.470646058453463E-01
              0.795788182873927E+00
             -0.360831866584537E+00
             -0.508385982747070E+00
              0.205662310491697E-01
              0.138893159623901E+00
              0.286751729161180E+00
             -0.280568303516469E+00
             -0.140069045372681E+00
              0.301996356261003E+00
             -0.614972816837855E+00
             -0.788269012461364E+00
              0.103520606336382E+01
             -0.840482666295781E-01
             -0.466411658100876E+00
             -0.725294887095853E-01
             -0.181149360605962E+00
              0.578801190332358E+00
              0.477131096577854E+00
             -0.266990952985686E+00
              0.128689766550405E-02
             -0.326691047442272E+00
             -0.464241199458510E+00
             -0.304157158793465E+00
             -0.127037234904251E+01
              0.243857481728083E-01
             -0.830819234863423E+00
             -0.769901584852744E+00
             -0.481037061989682E+00
              0.297544320955420E+00
             -0.501486768026932E+00
              0.316522725377630E+00
             -0.847843017189468E+00
             -0.606928167696452E-02
             -0.549905677101017E+00
              0.108109989021387E+00
              0.100994330079288E+00
              0.464779447206377E+00
             -0.272078051191499E+00
             -0.240498213180099E+00
              0.417063215108946E+00
              0.767470625754088E+00
              0.421028968560245E+00
              0.148028621328258E+00
             -0.973271587620353E+00
             -0.207689704630638E+00
             -0.358122191984598E+00
             -0.797994308838962E+00
              0.558460186202668E+00
             -0.445734592309029E+00
             -0.100635918909696E+00
             -0.362368715596486E+00
             -0.128419333764160E+01
              0.728014573634335E+00
             -0.241729016422847E+00
              0.496175675900687E+00
             -0.965724160259368E+00
              0.846849525112084E+00
              0.818595805144380E-01
             -0.325011549038321E+00
              0.139259153901400E+00
             -0.255860527132909E+00
             -0.804749648857056E+00
              0.226379397018394E+00
              0.518981335466624E+00
             -0.237211483935296E-01
             -0.441944995804443E+00
             -0.210272625064937E+00
              0.271614925807926E+00
              0.489201227125599E+00
              0.795058209247301E+00
              0.289240563636518E+00
             -0.296540227503088E+00
              0.131042450857197E+01
              0.270417378873939E+00
              0.625050189749810E+00
             -0.218978396029987E+00
              0.382996706613276E+00
              0.318325808385049E+00
             -0.798279045453410E+00
             -0.291920706798230E+00
             -0.526417742824422E+00
             -0.548456724406436E+00
             -0.158122485158701E+00
             -0.100651357826397E+00
             -0.610090883253354E+00
             -0.143038784909134E+01
             -0.345233192133371E+00
              0.175739384108612E+00
              0.740987492861223E-01
              0.211955151366097E+00
              0.517969005719629E+00
              0.128877057192989E+00
              0.406469994699338E+00
             -0.559092845042375E+00
              0.552457458037171E+00
             -0.502133449775820E+00
             -0.862177277888665E+00
              0.260038687717559E+00
             -0.550755855383858E+00
             -0.515323227733629E+00
             -0.206792857631794E+01
             -0.911355849398201E-01
              0.110014942591293E+01
              0.517605060067713E+00
             -0.134761558919134E+00
             -0.131527406655779E+00
              0.588485280090556E+00
              0.821565246470658E+00
             -0.503919171947503E+00
             -0.168093674287475E+00
             -0.477244639409055E+00
             -0.430307401109882E+00
             -0.378100374663840E+00
              0.130403968895202E+00
              0.894338180438270E+00
             -0.836608791358593E+00
             -0.704733587054799E+00
              0.496060473897879E-01
             -0.196424177221483E+00
             -0.226242496876369E+00
             -0.115210825133957E+01
              0.820299862376078E+00
              0.253318661178274E+00
              0.123012654275717E+00
              0.678071939514003E+00
             -0.429977092819381E+00
              0.439550185916621E+00
              0.374901621660215E+00
              0.107158135291803E-01
             -0.107129969603308E+00
              0.104135580550924E+00
             -0.202514303869431E+00
              0.690218454523911E+00
             -0.511045886798139E+00
              0.609676655384941E+00
              0.113888414113760E+00
              0.223174098891858E+00
              0.256595093293384E+00
             -0.104806800963619E+01
              0.137303423461907E+00
             -0.862593963553504E+00
             -0.616834741758569E+00
             -0.609968995724790E+00
             -0.688342186524920E+00
              0.944405011679805E-03
              0.253335809762594E+00
              0.645619889299477E+00
              0.929915086891543E-01
              0.193423049854734E+00
             -0.894922451087924E+00
             -0.364303373392026E+00
              0.413347167314510E+00
             -0.579380125650039E-01
             -0.524656499706735E-01
             -0.123657772715777E+00
              0.463256569693890E+00
             -0.117507541768812E+01
              0.174405748480321E+00
              0.261098917475940E+00
              0.499765365698242E+00
              0.475135778315468E+00
             -0.731659417941579E+00
              0.212485433317668E+00
              0.869357667239632E-01
              0.878298507060205E-01
              0.793921474581705E-01
             -0.252441421795779E+00
             -0.573664498131494E+00
              0.230313525861866E+00
              0.752310527736583E+00
             -0.794468601336540E-02
              0.182647889580188E+00
              0.156735663933034E+00
             -0.406135970155105E+00
             -0.435319481483277E+00
             -0.159341165585031E+01
             -0.488686907200768E+00
             -0.767015487623554E+00
             -0.794844383061211E-01
             -0.887199901522139E+00
              0.976941270698079E+00
             -0.441246870213454E+00
             -0.716087217215108E+00
             -0.203266922234160E+01
              0.867837377302310E+00
              0.196265178648423E+00
              0.151740266318672E+00
             -0.791570520202008E+00
              0.439912019693960E-01
             -0.213578478698285E+00
             -0.399405799701903E+00
              0.107856532590485E+00
              0.420518687372540E+00
              0.606885985346337E-01
             -0.270800253241903E+00
              0.555452912710743E-01
              0.190436250595014E-01
              0.131209587618925E+00
             -0.868872455390477E+00
              0.953723117651183E+00
             -0.538268144910208E+00
             -0.340421889554430E+00
             -0.678082955400122E+00
             -0.142896198254350E+01
              0.545190759745655E-01
             -0.755644802389041E+00
             -0.230306552268476E+00
              0.394078423508440E+00
             -0.351047309748867E+00
             -0.160630097955124E+00
             -0.172123439059284E+00
             -0.248236466086818E+00
              0.483516582303354E-01
              0.665432918681141E+00
             -0.646299839124207E+00
              0.135751244752044E+01
             -0.331776773404989E+00
              0.415515031087921E+00
             -0.245361476214011E+00
              0.146611839640750E+00
             -0.156321593275834E+00
              0.572424418213838E+00
              0.808004903165647E+00
              0.234245228952214E+00
              0.553705706751014E+00
             -0.368844095686266E+00
             -0.998746838989911E-01
             -0.305169773604749E+00
              0.822571099806356E+00
              0.711353091362053E+00
              0.513848228705506E+00
             -0.156710393489764E+00
             -0.328192360867431E+00
              0.311161023536383E+00
             -0.384376378246017E+00
             -0.197034376735814E+00
             -0.711936073710739E-01
             -0.470535369910662E+00
              0.631298007580708E+00
             -0.148715903806266E+00
              0.466136765242113E+00
              0.294869721868502E+00
              0.188685006956502E+00
             -0.438478820022254E+00
              0.315232375078645E+00
             -0.177805339662936E+00
             -0.847827650081330E-01
             -0.123698983915439E-01
             -0.618585455954617E+00
              0.100415127083952E+01
             -0.341516953361536E+00
              0.222818473062691E-02
              0.322350452755164E+00
              0.273290892532017E+00
              0.100544815978968E+01
             -0.283792880569115E+00
              0.967239494715630E+00
              0.857090380205768E+00
             -0.120097611664716E+01
              0.871272607306255E-01
             -0.239923776636731E+00
              0.160237667961209E+00
              0.601294298984916E-01
              0.282744779294887E+00
              0.835689144884708E+00
              0.130119800380549E+01
             -0.939638550150076E+00
              0.989726538516102E+00
             -0.130950468128937E+01
             -0.112761661067129E+01
             -0.194168869848900E+00
              0.120967041791094E-01
              0.102572522561836E+01
              0.415162471866278E+00
             -0.168272810726210E+00
             -0.106197059591636E+01
              0.863069906742650E+00
             -0.519395126222123E+00
              0.168373528843233E-01
             -0.678752256476594E-01
              0.168108115145529E+01
             -0.282321005918833E+00
             -0.136365460801331E+01
              0.389081927071154E+00
             -0.209845324600552E+01
              0.167058060522351E+00
             -0.500870570096315E+00
             -0.230364416034498E+00
             -0.335008690753810E+00
             -0.772497811409321E+00
              0.469367338612906E+00
             -0.475867086576657E+00
             -0.182051625745980E+00
             -0.973688397887683E+00
             -0.470882308918776E-01
             -0.703886869473869E+00
             -0.100981934231872E+01
             -0.134939683577544E+01
              0.100490490580166E+00
             -0.488125006407403E+00
              0.146070116811344E+00
             -0.180949860000660E+00
             -0.108390078649003E+01
             -0.830765052814861E+00
             -0.741573688364449E+00
             -0.768480952968575E+00
              0.673564632294517E+00
              0.665786288581212E-01
             -0.647999675874747E+00
             -0.328865483167689E+00
             -0.366443693223229E+00
              0.547200465619322E+00
             -0.392202672251519E+00
             -0.483341514864796E-01
             -0.424453882579479E+00
             -0.514804503418988E+00
             -0.546042203911634E+00
              0.527005767802312E+00
             -0.163145693712427E+00
             -0.120006570163213E+01
              0.100012356506697E+01
              0.581513434884923E+00
              0.336043968747166E-01
             -0.106310320851411E+01
             -0.961804541309152E+00
              0.557595833547619E-01
              0.116536856991889E-01
             -0.436865058053836E+00
             -0.555987001617297E+00
              0.382058038745112E+00
             -0.598918864128741E-01
              0.353092900047824E+00
              0.623388437267458E+00
              0.450598269639022E+00
              0.312370180906224E+00
              0.276836985193228E+00
             -0.295987295101034E+00
             -0.201672323393414E+00
             -0.237466338182572E+00
             -0.502196528806826E+00
             -0.608212140017502E+00
             -0.772007489102196E+00
             -0.462804463105883E+00
             -0.172550891664100E+00
             -0.957364557070584E+00
             -0.229665147587063E+00
              0.470910472755110E+00
             -0.110668494606836E+01
              0.489805465257044E+00
              0.393078525896228E+00
             -0.943946467669053E+00
             -0.722697257336130E+00
             -0.306301220854974E+00
              0.147871076124045E+00
             -0.542646887991692E+00
              0.982702820224174E+00
              0.871049632536394E+00
             -0.100239958634206E+01
              0.525377140045157E+00
              0.469250284192091E+00
              0.130803164266230E+00
              0.241162243174028E+00
             -0.553128438751331E+00
             -0.200656923709823E+00
              0.844348279889546E-01
              0.269045986468186E+00
              0.527627962486015E+00
             -0.699178810101568E+00
             -0.153674666307749E+00
              0.206673190726690E+00
              0.151876391990478E+00
             -0.447805299371228E+00
              0.238908333260271E+00
             -0.320788001787144E+00
             -0.228614781774978E+00
             -0.159433247952396E-01
             -0.802718008020281E+00
             -0.866090118943730E-02
             -0.100664537408332E+00
             -0.202995702807937E+00
              0.218029340946448E+00
             -0.679297065914646E+00
              0.763674337631904E+00
             -0.272842187843102E+00
             -0.174756046915594E+01
             -0.111479922265694E+01
              0.445741320171264E+00
             -0.551201930364006E+00
             -0.281744721883867E+00
             -0.290610646738873E+00
             -0.254370547289420E+00
             -0.134416957860459E+01
             -0.149626665410540E-02
             -0.802992408800536E+00
             -0.441827476836568E+00
              0.246562462498050E+00
              0.103560743202679E+01
              0.679750464738511E-01
              0.395807324390929E-01
              0.780415531531264E+00
             -0.767391884873739E+00
              0.355129369860738E+00
              0.746238611815013E-01
             -0.700738421973957E+00
             -0.415713945485638E+00
              0.245890738910279E+00
              0.426182681816074E-01
              0.225585499384950E+00
              0.179056684457422E+00
             -0.299521210912447E+00
             -0.438958346647748E+00
             -0.652285726896633E+00
              0.647096353072343E+00
             -0.884909100362398E+00
             -0.656910256975156E+00
              0.187512286629353E+00
             -0.108362389447942E+01
              0.310606045603401E+00
              0.776113826929763E+00
             -0.159968525640351E+00
              0.276410048577463E+00
             -0.449228357672786E+00
             -0.292675975772609E+00
              0.136953747588035E+00
              0.466803607965110E+00
             -0.469759967249842E+00
              0.282860225696171E+00
             -0.191918384071097E+00
              0.111296101242801E+00
              0.230378820533678E+00
              0.109528586143450E+00
             -0.169934615530643E+00
             -0.116196179497718E-01
              0.133033797022431E+00
              0.364499828753333E+00
             -0.918760019325662E+00
             -0.286919160625487E-01
              0.682792491926410E+00
             -0.113443735650112E+01
              0.426929226481108E+00
             -0.146340586864774E+01
             -0.155565589813948E+00
             -0.182155014930776E+00
             -0.337937694077688E-01
             -0.170157480986486E+00
             -0.359916957544437E+00
             -0.140743098016694E+00
              0.154284675553433E+00
             -0.335467561247995E+00
              0.139577195118243E+00
              0.118281981730190E+01
             -0.729218362924620E+00
             -0.322526506892304E+00
              0.553396274972386E+00
              0.265508214683611E+00
              0.554842030258144E+00
              0.267200173913383E+00
              0.200351377485513E+00
             -0.186761035834452E+00
             -0.641190555629482E+00
             -0.583321642665036E+00
             -0.468908159242042E+00
              0.767031966799858E-01
             -0.553417533460868E+00
             -0.149472196159210E+00
              0.781178412916779E-01
              0.316780701719176E+00
             -0.833825037677510E-01
              0.768005999779828E+00
             -0.865360687841040E+00
             -0.741712527695304E-02
             -0.101788643388485E+00
              0.411536069720221E+00
             -0.553629277181137E+00
             -0.363896507568935E+00
              0.151021714564915E+00
              0.579106249835942E+00
              0.985450570738073E+00
              0.382698624787455E+00
              0.605614348411606E+00
             -0.314682266140317E+00
              0.820948799791401E+00
              0.812162791869175E+00
             -0.106971165409213E-01
              0.388029559668977E+00
              0.487798235963540E+00
             -0.265510340686935E+00
              0.203822523535918E+00
              0.862048127427998E+00
             -0.268644663985813E+00
             -0.749792829242750E-01
             -0.804844125686242E+00
              0.281490572143870E+00
             -0.206586209816027E+00
              0.279295898273554E+00
              0.747184863295569E-02
             -0.504317189451195E+00
              0.588169194979750E+00
              0.506215862229258E+00
             -0.420677838646026E+00
              0.221609954668426E+00
             -0.781640912448006E+00
             -0.709791261134404E+00
              0.321728632164183E+00
             -0.879638112508049E+00
             -0.455336763195202E+00
             -0.305067911580537E-02
              0.111954323594650E+01
             -0.291100986950051E+00
             -0.145326655339320E+00
             -0.270701394546385E+00
              0.144665451356007E+01
              0.240230883383382E+00
             -0.552981185750195E+00
              0.920349991112021E+00
              0.805850695965620E+00
              0.422401918904233E+00
              0.104206200967914E+01
              0.114123581383718E+01
             -0.345037967667391E-01
             -0.375570120557406E+00
             -0.312425241120401E+00
              0.360161519164724E+00
              0.512635197157994E+00
             -0.991727080902622E-01
             -0.313482041261776E+00
             -0.739205859153572E+00
             -0.254989759723022E+00
             -0.607455528377090E+00
              0.444734049057910E+00
              0.233333896223406E+00
              0.775695018318189E+00
              0.188727771860556E+00
             -0.293607824438494E+00
             -0.116466873459370E+00
              0.513021144020760E+00
              0.131513122099115E+00
              0.812060996585843E+00
              0.716761269627441E+00
             -0.998975821172796E-01
             -0.115732167762372E+00
             -0.132447882685873E+01
              0.634896068676209E+00
             -0.486572319358558E-03
              0.759271937226814E+00
             -0.342064670744753E+00
             -0.863165424636479E+00
              0.246761774703685E+00
              0.943193021400583E+00
             -0.324643866731751E+00
              0.855557300117363E+00
             -0.927718962536334E+00
             -0.343769220084878E+00
             -0.112706837306936E+01
              0.198744492857945E+00
              0.532341360524837E-01
              0.120045919533384E+00
             -0.808150256862196E+00
              0.121835018660454E+01
              0.700164490921853E+00
              0.758838058067752E-01
             -0.723367630194096E+00
              0.263487858293480E+00
             -0.226013737269917E+00
             -0.201583411008276E+00
             -0.366359117013815E+00
              0.211949805171989E+00
             -0.231398850833339E+00
             -0.228520730368723E+00
              0.312071848881824E+00
              0.297139521222119E+00
             -0.117164174622466E+01
              0.259070925457833E+00
              0.856898564925694E+00
              0.550523636235226E+00
             -0.171135155767067E+00
             -0.382118346476831E-01
             -0.477229126950753E+00
              0.711571337296776E+00
              0.104228473193908E+00
             -0.329653948096551E-01
             -0.805660586293779E-01
              0.140633801505649E+01
             -0.105566949974140E+00
              0.274767882459117E+00
              0.971413112046640E+00
              0.123919630178879E+01
              0.765424947499167E+00
              0.498433260365634E+00
             -0.833655986282344E+00
             -0.600719460801022E+00
              0.478773213511802E+00
              0.742638991107971E-01
              0.396314675826004E+00
              0.154466033585468E+00
              0.849994859913326E+00
             -0.102707290320496E+01
             -0.637455941235532E+00
             -0.150652528949629E+00
             -0.113290534582187E+01
              0.250737475011972E+00
              0.610476885521772E+00
             -0.683314228508447E-02
             -0.261812523437583E+00
              0.261938021674635E+00
              0.174269889999942E+01
              0.418765578383955E+00
              0.230601571823212E+00
             -0.607459394497265E+00
             -0.743820103784125E+00
             -0.168182563269621E+00
              0.363607839474651E+00
             -0.749115680399264E-01
              0.349826017843070E+00
              0.464144449043779E+00
             -0.794191561836883E+00
              0.349385216499509E+00
              0.407738817461921E+00
              0.726130904303099E+00
             -0.138402942305711E+00
              0.753998994475920E-01
             -0.880396278822890E-01
             -0.569245748881445E+00
             -0.951670430142442E+00
              0.972076238005000E+00
             -0.136448176151732E+00
             -0.673210531775779E+00
              0.119977607918460E+00
             -0.401119140776914E+00
              0.109720507684231E+01
             -0.298895323597453E+00
             -0.494505613526569E+00
              0.489929618472612E+00
             -0.205272592587757E+00
              0.606452814335323E+00
              0.455595511689513E-01
              0.118137570330276E+01
              0.686468070386464E+00
              0.182003501140338E+00
             -0.518996073391372E+00
              0.371136459263122E+00
             -0.697776353145552E+00
             -0.512759942087033E-01
              0.838809820121478E+00
             -0.326435169336106E+00
             -0.559882258216471E+00
             -0.302888524466175E+00
              0.666451172221471E+00
              0.144513211953743E+00
             -0.104093273798425E+01
              0.443761525793773E+00
              0.642311616517710E-01
              0.148593594121913E+00
             -0.631369105607927E+00
              0.137705307170203E+00
              0.442812447398600E+00
              0.576725001676309E+00
              0.848236620976070E+00
              0.469295553118016E+00
              0.106867160681444E+00
             -0.723908191041398E+00
             -0.534787208402653E+00
             -0.815760028686594E+00
             -0.201741360788725E+00
              0.446400095995807E+00
              0.846665196112451E-02
              0.672979504409570E+00
             -0.410103047343819E+00
              0.225255055572251E+00
             -0.314466198487743E+00
             -0.343499496003098E+00
              0.759101885977168E+00
              0.651522878035582E-01
              0.807470467458071E+00
              0.632789238596860E-01
              0.246902977230303E+00
             -0.206953408461091E+00
              0.771492154561989E+00
             -0.218276154629111E+00
              0.374345721086312E-02
             -0.101021461261871E+01
             -0.856680480756915E-01
              0.889945586028476E+00
              0.820842865347346E+00
              0.329921208764404E+00
             -0.206126926979650E+00
              0.770875955890002E-01
             -0.317874417986406E+00
             -0.274600814490011E+00
              0.116064528706905E+01
              0.111962035321231E+00
             -0.382125891629245E+00
             -0.136510186241901E+01
             -0.529417462695911E+00
             -0.491361694323443E+00
             -0.772934795560503E+00
             -0.775975833531207E+00
             -0.910469642730596E+00
             -0.580282136720299E+00
             -0.342754317863599E+00
             -0.622811290705604E+00
              0.563317362355473E+00
             -0.214978895310090E+00
             -0.105707477573687E+01
              0.528655866832223E+00
             -0.444612698706552E+00
             -0.102477720051646E+01
              0.130504800390280E+01
             -0.334869558063788E+00
              0.182288231567560E+00
              0.474524442066145E+00
              0.196406046467305E+00
              0.345114573028955E+00
              0.736347709862217E-02
              0.206773314608789E-01
             -0.167972671112411E+00
             -0.954913290334757E+00
              0.132498309129067E+00
             -0.153384532183240E+01
              0.951933333863570E+00
             -0.515059278988346E+00
             -0.254397439464946E+00
             -0.278684788627795E+00
              0.305135173310400E+00
             -0.201113827527764E+00
              0.356178634791292E+00
             -0.766277135976614E+00
              0.462634148148227E+00
              0.561209455592180E+00
              0.100640161318668E+00
              0.120548497236066E+00
              0.279348591301668E+00
              0.137245354902277E+00
              0.379077349689173E+00
             -0.438201224502062E-01
             -0.986949550493800E+00
              0.118991698628312E+00
             -0.463730037184849E+00
             -0.365351648362129E-01
              0.736398894458966E+00
             -0.102572711223783E+01
              0.329943291343913E-01
              0.511549351269274E-01
              0.123624588509212E+00
              0.391757990137833E+00
             -0.164997297915270E+00
              0.108963872316285E+01
              0.451193892506927E+00
             -0.175576654218671E+00
             -0.107044026896767E+00
              0.845715827718942E-01
              0.101179644045829E+01
             -0.626045335980823E+00
             -0.129885492673767E+01
              0.375744904622163E+00
             -0.102082690667514E+00
             -0.207896973998052E+00
              0.252745791789273E+00
              0.960314017851554E+00
              0.526570504920396E+00
             -0.221775170884752E+00
             -0.709041239099556E+00
             -0.175635960598119E+00
              0.348961918502830E+00
             -0.238604273348463E+00
             -0.991762029222553E+00
             -0.136397576433470E+00
             -0.127786123762384E+01
             -0.674941696922811E+00
              0.114505495800951E+01
             -0.681816565247767E+00
             -0.931809757991749E+00
             -0.685455792087882E+00
             -0.531865720454050E+00
              0.439299533600151E+00
              0.110158134080193E+01
             -0.140631543733720E+00
              0.343674878797578E+00
             -0.270877961938637E+00
             -0.883194454863453E+00
              0.674207848224786E+00
             -0.630096768514970E+00
              0.308130850590075E+00
              0.350414017490930E+00
             -0.209939419977527E+00
              0.462385705617478E+00
              0.487927974927390E+00
              0.159078810625198E+01
             -0.120367450523123E+00
             -0.759459197961388E+00
             -0.868562050484581E+00
             -0.260740519322954E+00
             -0.569721716964430E+00
              0.118932713505477E+01
             -0.588246576839049E+00
              0.133263037773347E+00
              0.203946212844772E-01
             -0.244070807542404E+00
             -0.112261632598561E+01
             -0.826085885668988E-01
              0.130677370202478E+01
              0.301915788583075E+00
              0.913393995767899E-01
             -0.779993857134368E+00
             -0.703182490815806E+00
             -0.248851110439783E+00
              0.589195116501482E+00
             -0.350580787539991E+00
              0.129592554136415E+01
             -0.625337138481418E+00
              0.253483633606477E+00
             -0.158315182377763E+00
             -0.788885915615686E+00
              0.928680194625011E-01
             -0.742039397042134E+00
             -0.958241210892163E+00
              0.150375973291338E+00
              0.218125501298887E-01
              0.634669102520869E+00
              0.359828918769216E+00
             -0.459327705402285E+00
              0.272693780615517E+00
             -0.116213513258339E+01
             -0.602075924346657E+00
              0.120485084226922E+01
              0.273387869205606E-01
             -0.534999732963044E-01
             -0.306695461167848E+00
             -0.110942858057861E-02
             -0.169646125015989E+00
              0.120099265855296E+01
              0.533227620865902E+00
             -0.102574597748213E+00
              0.191257198733794E-01
             -0.483716137998009E+00
             -0.140979078279540E+00
             -0.796875898335430E+00
              0.679703928169802E+00
              0.850410169707065E-01
              0.931156607227406E-01
              0.254352202766232E+00
             -0.197008133829461E+00
             -0.305292064540630E+00
              0.140401495189944E+00
             -0.146188548699245E+01
             -0.124442680997608E+00
             -0.129408202491699E+00
             -0.773872541410026E-01
              0.618796057151851E+00
              0.844656287860958E+00
              0.238297072084027E+00
             -0.120385922354128E+01
              0.830380171348230E+00
             -0.317506373482732E+00
             -0.480326125835024E+00
             -0.113340311334825E+01
             -0.334075491221027E+00
              0.830472381011281E+00
              0.441395174961469E+00
              0.219261447010147E+00
              0.463693023726599E+00
             -0.726263097019681E+00
             -0.642053757902790E+00
              0.827718043061773E+00
              0.542493363241109E+00
              0.602502387693307E+00
              0.137601870387591E+00
              0.145493108997850E+00
              0.681480295930323E+00
              0.127483749311230E+01
             -0.216817161711969E+00
              0.527334930590351E+00
             -0.406476416358961E+00
             -0.568463247826018E+00
             -0.452713722312849E+00
             -0.442969077068563E+00
             -0.187934328893668E+00
             -0.612217797032822E+00
             -0.240570992439317E+00
             -0.165910612967069E+01
              0.404342028831484E+00
              0.383471770084402E+00
             -0.443504278026914E-01
             -0.472814706687454E+00
             -0.227351655290244E+00
             -0.744948119021866E+00
              0.623301300710271E-01
              0.102375873116641E+01
             -0.242909123741049E+00
             -0.251693189840808E+00
              0.248175867568503E+00
             -0.663523565317802E+00
              0.110489363386917E+01
              0.199690722992614E+00
              0.632404432647542E-01
              0.678361516501610E+00
             -0.922004951242030E-01
              0.771988554101048E+00
              0.273166170061126E+00
             -0.124430835627525E-01
              0.187598381685914E+00
             -0.146055134617511E+00
              0.863897031085724E+00
              0.842037638063475E-01
              0.285458006599586E+00
             -0.115550548449312E+00
              0.131561910747663E+00
             -0.122232646049788E+01
             -0.450540898457418E+00
             -0.653035368806769E+00
              0.644483120605651E+00
             -0.471190564324047E+00
             -0.701624000179986E+00
              0.776163094263985E+00
             -0.178643031324254E+00
              0.533091364849287E+00
             -0.114473837619164E+01
              0.218304926907500E+00
              0.423287366885443E-01
              0.966532066484369E-01
             -0.188692510927510E+00
             -0.835114170349787E-01
              0.646523765756110E+00
              0.352851152773974E-01
             -0.701234306733710E+00
             -0.291552718875355E+00
              0.221552466552748E+00
             -0.149103662011661E+01
             -0.111942410244143E+01
              0.909035976776540E-02
              0.220811293171633E+00
             -0.681732480383783E+00
              0.235702560005899E-01
              0.132616507628647E+01
              0.364330055832455E+00
             -0.698942596825094E+00
              0.964107594048631E-01
             -0.137062719679570E+00
              0.175149013555666E+00
             -0.475746383146466E+00
              0.306150591156392E+00
              0.301910907498931E+00
             -0.121456650241475E+00
              0.146964919844325E+01
             -0.373074259177884E-01
             -0.390279253862389E+00
              0.421647916638872E+00
              0.551950514012594E+00
             -0.404800605480277E+00
             -0.101488004590188E-01
              0.127721681902286E+01
             -0.114265521510637E-01
              0.668979869782092E+00
              0.218286086974626E+00
             -0.850508034132200E-01
             -0.186761302938563E+00
              0.603453432229787E+00
             -0.770711888286822E+00
             -0.205996086233005E-01
             -0.267190921822972E+00
             -0.517455489629000E+00
              0.140007779763872E+00
              0.330703620007751E+00
             -0.407693080005060E-01
             -0.222011451844724E-01
             -0.551750290951054E+00
              0.187600738316536E+00
             -0.150222831335061E-01
             -0.276910559554892E+00
             -0.260467469907303E+00
              0.203551513028763E+00
              0.419755469294358E-02
             -0.508045814612098E+00
             -0.139767686391531E+01
              0.896507072456829E-01
              0.173681678373912E+00
             -0.643975394859336E+00
             -0.338952606291180E+00
              0.107153408339211E+01
              0.179448710424074E+00
              0.594442109687879E+00
              0.158740417759599E+00
              0.528002267625090E+00
              0.234591658254608E-01
             -0.515780944268715E+00
             -0.177533321662265E+00
              0.647854594118451E-01
              0.411853395058916E+00
              0.951608851077500E+00
              0.639794809888911E+00
              0.384879573367729E-01
              0.140487817320909E+00
              0.788461818046900E+00
              0.374157881536168E+00
             -0.891035035564765E+00
             -0.355805779199375E+00
              0.132631148834927E+00
              0.140016922292073E+00
              0.330128856718756E+00
             -0.657585458643703E+00
              0.494246769335509E-01
              0.547208681831505E+00
              0.628944368238443E+00
             -0.545813421335337E+00
              0.490442444256622E-01
             -0.320711127213977E-01
             -0.282024189377975E+00
             -0.312928618887312E+00
             -0.135187695937003E+00
             -0.186389245143755E+00
              0.152951221105171E+00
              0.546777582580954E+00
             -0.430471690712867E+00
              0.105935416990574E+01
              0.430323623139593E+00
              0.348770300453085E+00
              0.491009424185442E+00
              0.303817982961650E+00
              0.468711062468746E+00
              0.723767131323014E+00
             -0.617495507580676E+00
              0.819983989375449E+00
             -0.148307755365617E+01
              0.406597646645804E+00
             -0.136199936519533E+01
              0.104273181684992E+01
              0.102654642866410E+01
             -0.104357413424921E+00
             -0.599085619397642E+00
             -0.562035207724333E+00
             -0.685398802233157E+00
             -0.860823617089530E+00
              0.707820676833809E+00
              0.561899359243661E+00
              0.317884731619852E+00
              0.317026455151612E+00
              0.601475949313572E+00
             -0.537169090112753E+00
             -0.178759228382824E+00
              0.690189813159978E+00
             -0.161036345079481E+00
              0.646306754518716E+00
              0.102295777737288E+01
             -0.494397819926825E-01
             -0.993572019179791E+00
              0.863924498721218E-01
              0.232791070745259E-01
             -0.137205665872773E+00
              0.427913700108506E-01
             -0.836600174003353E+00
             -0.883020015666660E-01
              0.190187072971244E+00
              0.200607640388237E+00
              0.655876420080777E+00
             -0.556511162531876E+00
              0.644675535744006E+00
             -0.494683719927221E+00
              0.363821870442033E+00
              0.578318640191106E+00
 
 BEEF-vdW xc energy contributions
           1 :   -8.98412586544809     
           2 :    7.30675424481999     
           3 :   -4.91460400358373     
           4 :    2.68848466516453     
           5 :   -1.04143178843174     
           6 :   5.863745518220398E-002
           7 :   0.353332880551715     
           8 :  -0.396502002146310     
           9 :   0.299053475656336     
          10 :  -0.233713136337698     
          11 :   0.255886454332913     
          12 :  -0.318888096055030     
          13 :   0.339056682062125     
          14 :  -0.264726332162704     
          15 :   0.102178956215461     
          16 :   9.113357228521224E-002
          17 :  -0.242318049141783     
          18 :   0.300485462450670     
          19 :  -0.262496172358388     
          20 :   0.167422136710744     
          21 :  -7.008481792629873E-002
          22 :   9.717340940186503E-003
          23 :   4.143933569277891E-003
          24 :   7.328643712810390E-003
          25 :  -1.663798455983745E-002
          26 :   1.592315895456942E-002
          27 :  -5.766338836082241E-003
          28 :  -2.246167303122526E-002
          29 :   6.748668674387837E-002
          30 :  -0.109020202998030     
          31 :   -1.22686649442964     
          32 :  -0.749385510570937     

     Writing output data file ./pwscf.save/
 
     init_run     :     66.37s CPU     68.44s WALL (       1 calls)
     electrons    :    527.05s CPU    559.81s WALL (       1 calls)
     forces       :     27.51s CPU     29.35s WALL (       1 calls)

     Called by init_run:
     wfcinit      :      1.28s CPU      1.32s WALL (       1 calls)
     potinit      :     57.55s CPU     59.07s WALL (       1 calls)
     hinit0       :      6.21s CPU      6.31s WALL (       1 calls)

     Called by electrons:
     c_bands      :    112.01s CPU    112.06s WALL (      14 calls)
     sum_band     :     28.44s CPU     32.89s WALL (      14 calls)
     v_of_rho     :    327.85s CPU    349.27s WALL (      15 calls)
     newd         :     11.90s CPU     16.59s WALL (      15 calls)
     PAW_pot      :      1.33s CPU      1.33s WALL (      15 calls)
     mix_rho      :     98.27s CPU    102.13s WALL (      14 calls)
     vdW_kernel   :     33.86s CPU     33.86s WALL (       1 calls)

     Called by c_bands:
     init_us_2    :      0.99s CPU      1.01s WALL (      29 calls)
     rcgdiagg     :     96.72s CPU     96.75s WALL (      14 calls)
     wfcrot       :     15.94s CPU     15.97s WALL (      14 calls)

     Called by *cgdiagg:
     h_psi        :    101.02s CPU    101.05s WALL (     389 calls)
     s_psi        :      4.72s CPU      4.72s WALL (     764 calls)

     Called by h_psi:
     h_psi:calbec :      2.68s CPU      2.68s WALL (     389 calls)
     vloc_psi     :     95.43s CPU     95.45s WALL (     389 calls)
     add_vuspsi   :      2.58s CPU      2.58s WALL (     389 calls)
     hs_1psi      :     88.27s CPU     88.29s WALL (     375 calls)
     s_1psi       :      4.76s CPU      4.77s WALL (     375 calls)

     General routines
     calbec       :      5.13s CPU      5.13s WALL (     782 calls)
     fft          :    255.29s CPU    255.31s WALL (    2814 calls)
     ffts         :     43.68s CPU     43.68s WALL (     489 calls)
     fftw         :     86.73s CPU     86.73s WALL (     960 calls)
 
     Parallel routines
 
     PWSCF        :  20m38.31s CPU  22m 2.33s WALL

 
   This run was terminated on:  16:42:35  20Dec2022            

=------------------------------------------------------------------------------=
   JOB DONE.
=------------------------------------------------------------------------------=
