
     Program PWSCF v.6.8 starts on 23Jan2023 at 15:25:23 

     This program is part of the open-source Quantum ESPRESSO suite
     for quantum simulation of materials; please cite
         "P. Giannozzi et al., J. Phys.:Condens. Matter 21 395502 (2009);
         "P. Giannozzi et al., J. Phys.:Condens. Matter 29 465901 (2017);
         "P. Giannozzi et al., J. Chem. Phys. 152 154105 (2020);
          URL http://www.quantum-espresso.org", 
     in publications or presentations arising from this work. More details at
     http://www.quantum-espresso.org/quote

     Parallel version (MPI), running on     1 processors

     MPI processes distributed on     1 nodes
     169398 MiB available memory on the printing compute node when the environment starts
 
     Reading input from chch2ch2-gas-ensemble.in
Warning: card &CELL ignored
Warning: card / ignored

     Current dimensions of program PWSCF are:
     Max number of different atomic species (ntypx) = 10
     Max number of k-points (npk) =  40000
     Max angular momentum in pseudopotentials (lmaxx) =  4
     file C.pbe-n-kjpaw_psl.1.0.0.UPF: wavefunction(s)  2S 2P renormalized
     file H.pbe-kjpaw_psl.1.0.0.UPF: wavefunction(s)  1S renormalized

     **************************************************************************
     Initializing libbeef V0.1.2 with the BEEF-vdW functional.
     Citation: Wellendorff et al., PRB 85, 235149 (2012).
     **************************************************************************


     IMPORTANT: XC functional enforced from input :
     Exchange-correlation= BEEF-VDW
                           (   1   4  43  14   2   0   0)
     Any further DFT definition will be discarded
     Please, verify this is what you really want


     gamma-point specific algorithms are used

     Subspace diagonalization in iterative solution of the eigenvalue problem:
     a serial algorithm will be used

 
     G-vector sticks info
     --------------------
     sticks:   dense  smooth     PW     G-vecs:    dense   smooth      PW
     Sum       35971   35971   8993              5060997  5060997  632613
 
     Using Slab Decomposition
 


     bravais-lattice index     =            0
     lattice parameter (alat)  =      43.5617  a.u.
     unit-cell volume          =   80600.9670 (a.u.)^3
     number of atoms/cell      =            8
     number of atomic types    =            2
     number of electrons       =        17.00
     number of Kohn-Sham states=           13
     kinetic-energy cutoff     =      60.0000  Ry
     charge density cutoff     =     240.0000  Ry
     scf convergence threshold =      1.0E-06
     mixing beta               =       0.7000
     number of iterations used =            8  local-TF  mixing
     Exchange-correlation= BEEF-VDW
                           (   1   4  43  14   2   0   0)

     celldm(1)=  43.561732  celldm(2)=   0.000000  celldm(3)=   0.000000
     celldm(4)=   0.000000  celldm(5)=   0.000000  celldm(6)=   0.000000

     crystal axes: (cart. coord. in units of alat)
               a(1) = (   1.000000   0.000000   0.000000 )  
               a(2) = (   0.000000   0.991942   0.000000 )  
               a(3) = (   0.000000   0.000000   0.982966 )  

     reciprocal axes: (cart. coord. in units 2 pi/alat)
               b(1) = (  1.000000  0.000000  0.000000 )  
               b(2) = (  0.000000  1.008124  0.000000 )  
               b(3) = (  0.000000  0.000000  1.017329 )  


     PseudoPot. # 1 for C  read from file:
     /users/bkreitz1/quantum-espresso/potentials/C.pbe-n-kjpaw_psl.1.0.0.UPF
     MD5 check sum: a169b0ebad56f5ec0d79c4633f80bf22
     Pseudo is Projector augmented-wave + core cor, Zval =  4.0
     Generated using 'atomic' code by A. Dal Corso  v.6.7MaX
     Shape of augmentation charge: PSQ
     Using radial grid of 1073 points,  4 beta functions with: 
                l(1) =   0
                l(2) =   0
                l(3) =   1
                l(4) =   1
     Q(r) pseudized with 0 coefficients 


     PseudoPot. # 2 for H  read from file:
     /users/bkreitz1/quantum-espresso/potentials/H.pbe-kjpaw_psl.1.0.0.UPF
     MD5 check sum: ae98473e6dc62675f0d0baffdab24f65
     Pseudo is Projector augmented-wave, Zval =  1.0
     Generated using 'atomic' code by A. Dal Corso  v.6.7MaX
     Shape of augmentation charge: PSQ
     Using radial grid of  929 points,  2 beta functions with: 
                l(1) =   0
                l(2) =   0
     Q(r) pseudized with 0 coefficients 


     atomic species   valence    mass     pseudopotential
        C              4.00    12.01100     C ( 1.00)
        H              1.00     1.00800     H ( 1.00)

     No symmetry found



   Cartesian axes

     site n.     atom                  positions (alat units)
         1           C   tau(   1) = (   0.4774328   0.4807746   0.4755250  )
         2           C   tau(   2) = (   0.5130262   0.5195216   0.5174206  )
         3           C   tau(   3) = (   0.5271735   0.5144416   0.4560260  )
         4           H   tau(   4) = (   0.5416869   0.5003839   0.5496717  )
         5           H   tau(   5) = (   0.4897230   0.5573711   0.5333283  )
         6           H   tau(   6) = (   0.4806220   0.4337497   0.4779068  )
         7           H   tau(   7) = (   0.4335659   0.4961882   0.4674369  )
         8           H   tau(   8) = (   0.5667383   0.5014753   0.4350301  )

     number of k points=     1  Gaussian smearing, width (Ry)=  0.0050
                       cart. coord. in units 2pi/alat
        k(    1) = (   0.0000000   0.0000000   0.0000000), wk =   2.0000000

     Dense  grid:  2530499 G-vectors     FFT dimensions: ( 216, 216, 216)

     Estimated max dynamical RAM per process >       4.13 GB

     Initial potential from superposition of free atoms

     starting charge   16.99983, renormalised to   17.00000

     negative rho (up, down):  9.272E-03 0.000E+00


     %%%%%%%%%%%%%%%%%%%%%%%%%%%%%%%%%%%%%%%%%%%%%%%%%%%%%%%%%%%%%%%%%%%%%%%%
     %                                                                      %
     % You are using vdW-DF, which was implemented by the Thonhauser group. %
     % Please cite the following two papers that made this development      %
     % possible and the two reviews that describe the various versions:     %
     %                                                                      %
     %   T. Thonhauser et al., PRL 115, 136402 (2015).                      %
     %   T. Thonhauser et al., PRB 76, 125112 (2007).                       %
     %   K. Berland et al., Rep. Prog. Phys. 78, 066501 (2015).             %
     %   D.C. Langreth et al., J. Phys.: Condens. Matter 21, 084203 (2009). %
     %                                                                      %
     %                                                                      %
     % If you are calculating the stress with vdW-DF, please also cite:     %
     %                                                                      %
     %   R. Sabatini et al., J. Phys.: Condens. Matter 24, 424209 (2012).   %
     %                                                                      %
     %%%%%%%%%%%%%%%%%%%%%%%%%%%%%%%%%%%%%%%%%%%%%%%%%%%%%%%%%%%%%%%%%%%%%%%%


     Starting wfcs are   17 randomized atomic wfcs
     Checking if some PAW data can be deallocated... 

     total cpu time spent up to now is       71.3 secs

     Self-consistent Calculation

     iteration #  1     ecut=    60.00 Ry     beta= 0.70
     Davidson diagonalization with overlap
     ethr =  1.00E-02,  avg # of iterations =  5.0

     negative rho (up, down):  7.850E-03 0.000E+00

     total cpu time spent up to now is      110.8 secs

     total energy              =     -62.93587678 Ry
     estimated scf accuracy    <       0.91272337 Ry

     iteration #  2     ecut=    60.00 Ry     beta= 0.70
     Davidson diagonalization with overlap
     ethr =  5.37E-03,  avg # of iterations =  1.0

     negative rho (up, down):  5.261E-03 0.000E+00

     total cpu time spent up to now is      147.7 secs

     total energy              =     -62.82111468 Ry
     estimated scf accuracy    <       0.27467915 Ry

     iteration #  3     ecut=    60.00 Ry     beta= 0.70
     Davidson diagonalization with overlap
     ethr =  1.62E-03,  avg # of iterations =  4.0

     negative rho (up, down):  2.103E-03 0.000E+00

     total cpu time spent up to now is      187.4 secs

     total energy              =     -62.85479473 Ry
     estimated scf accuracy    <       0.04015834 Ry

     iteration #  4     ecut=    60.00 Ry     beta= 0.70
     Davidson diagonalization with overlap
     ethr =  2.36E-04,  avg # of iterations = 16.0

     negative rho (up, down):  3.864E-02 0.000E+00

     total cpu time spent up to now is      233.2 secs

     total energy              =     -62.84812001 Ry
     estimated scf accuracy    <       0.02586965 Ry

     iteration #  5     ecut=    60.00 Ry     beta= 0.70
     Davidson diagonalization with overlap
     ethr =  1.52E-04,  avg # of iterations =  2.0

     negative rho (up, down):  1.063E-01 0.000E+00

     total cpu time spent up to now is      274.1 secs

     total energy              =     -62.84890870 Ry
     estimated scf accuracy    <       0.01040405 Ry

     iteration #  6     ecut=    60.00 Ry     beta= 0.70
     Davidson diagonalization with overlap
     ethr =  6.12E-05,  avg # of iterations =  5.0

     negative rho (up, down):  1.476E-01 0.000E+00

     total cpu time spent up to now is      316.1 secs

     total energy              =     -62.85009274 Ry
     estimated scf accuracy    <       0.00512113 Ry

     iteration #  7     ecut=    60.00 Ry     beta= 0.70
     Davidson diagonalization with overlap
     ethr =  3.01E-05,  avg # of iterations =  5.0

     negative rho (up, down):  1.286E-01 0.000E+00

     total cpu time spent up to now is      356.5 secs

     total energy              =     -62.84813530 Ry
     estimated scf accuracy    <       0.00269737 Ry

     iteration #  8     ecut=    60.00 Ry     beta= 0.70
     Davidson diagonalization with overlap
     ethr =  1.59E-05,  avg # of iterations =  8.0

     negative rho (up, down):  1.187E-01 0.000E+00

     total cpu time spent up to now is      400.2 secs

     total energy              =     -62.84812831 Ry
     estimated scf accuracy    <       0.00171023 Ry

     iteration #  9     ecut=    60.00 Ry     beta= 0.70
     Davidson diagonalization with overlap
     ethr =  1.01E-05,  avg # of iterations =  2.0

     negative rho (up, down):  8.264E-02 0.000E+00

     total cpu time spent up to now is      438.7 secs

     total energy              =     -62.84715001 Ry
     estimated scf accuracy    <       0.00069881 Ry

     iteration # 10     ecut=    60.00 Ry     beta= 0.70
     Davidson diagonalization with overlap
     c_bands:  1 eigenvalues not converged
     ethr =  4.11E-06,  avg # of iterations = 20.0

     negative rho (up, down):  5.592E-02 0.000E+00

     total cpu time spent up to now is      485.2 secs

     total energy              =     -62.84681055 Ry
     estimated scf accuracy    <       0.00029651 Ry

     iteration # 11     ecut=    60.00 Ry     beta= 0.70
     Davidson diagonalization with overlap
     ethr =  1.74E-06,  avg # of iterations = 18.0

     negative rho (up, down):  4.682E-02 0.000E+00

     total cpu time spent up to now is      530.4 secs

     total energy              =     -62.84682298 Ry
     estimated scf accuracy    <       0.00012115 Ry

     iteration # 12     ecut=    60.00 Ry     beta= 0.70
     Davidson diagonalization with overlap
     ethr =  7.13E-07,  avg # of iterations =  5.0

     negative rho (up, down):  3.268E-02 0.000E+00

     total cpu time spent up to now is      569.0 secs

     total energy              =     -62.84686502 Ry
     estimated scf accuracy    <       0.00005818 Ry

     iteration # 13     ecut=    60.00 Ry     beta= 0.70
     Davidson diagonalization with overlap
     ethr =  3.42E-07,  avg # of iterations =  5.0

     negative rho (up, down):  2.743E-02 0.000E+00

     total cpu time spent up to now is      609.0 secs

     total energy              =     -62.84686072 Ry
     estimated scf accuracy    <       0.00005175 Ry

     iteration # 14     ecut=    60.00 Ry     beta= 0.70
     Davidson diagonalization with overlap
     ethr =  3.04E-07,  avg # of iterations = 10.0

     negative rho (up, down):  2.207E-02 0.000E+00

     total cpu time spent up to now is      650.6 secs

     total energy              =     -62.84686907 Ry
     estimated scf accuracy    <       0.00002420 Ry

     iteration # 15     ecut=    60.00 Ry     beta= 0.70
     Davidson diagonalization with overlap
     ethr =  1.42E-07,  avg # of iterations = 12.0

     negative rho (up, down):  1.907E-02 0.000E+00

     total cpu time spent up to now is      691.2 secs

     total energy              =     -62.84688120 Ry
     estimated scf accuracy    <       0.00000343 Ry

     iteration # 16     ecut=    60.00 Ry     beta= 0.70
     Davidson diagonalization with overlap
     ethr =  2.02E-08,  avg # of iterations =  3.0

     negative rho (up, down):  1.753E-02 0.000E+00

     total cpu time spent up to now is      729.3 secs

     total energy              =     -62.84688505 Ry
     estimated scf accuracy    <       0.00000139 Ry

     iteration # 17     ecut=    60.00 Ry     beta= 0.70
     Davidson diagonalization with overlap
     ethr =  8.18E-09,  avg # of iterations =  1.0

     negative rho (up, down):  1.672E-02 0.000E+00

     total cpu time spent up to now is      757.5 secs

     End of self-consistent calculation

          k = 0.0000 0.0000 0.0000 (316307 PWs)   bands (ev):

   -21.8024 -15.3474 -14.5157 -12.3545 -11.5766  -9.3408  -7.9585  -7.6864
    -4.2637  -0.8570  -0.4934  -0.4523  -0.3473

     the Fermi energy is    -4.2637 ev

!    total energy              =     -62.84688582 Ry

     total all-electron energy =      -236.139155 Ry
     estimated scf accuracy    <       0.00000037 Ry
     smearing contrib. (-TS)   =      -0.00282095 Ry
     internal energy E=F+TS    =     -62.84406487 Ry

     The total energy is F=E-TS. E is the sum of the following terms:
     one-electron contribution =    -169.87649127 Ry
     hartree contribution      =      87.09504459 Ry
     xc contribution           =     -18.13069026 Ry
     ewald contribution        =      57.69744181 Ry
     one-center paw contrib.   =     -19.62936974 Ry

     convergence has been achieved in  17 iterations

     negative rho (up, down):  1.672E-02 0.000E+00

     Forces acting on atoms (cartesian axes, Ry/au):

     atom    1 type  1   force =     0.00153286   -0.00246024    0.00091711
     atom    2 type  1   force =    -0.00071237    0.00189997   -0.00017191
     atom    3 type  1   force =    -0.00506685    0.00334803    0.00412261
     atom    4 type  2   force =    -0.00008319   -0.00022189    0.00008758
     atom    5 type  2   force =     0.00027019    0.00024711    0.00000796
     atom    6 type  2   force =    -0.00065989   -0.00071062   -0.00046717
     atom    7 type  2   force =     0.00013189    0.00000814   -0.00078978
     atom    8 type  2   force =     0.00458736   -0.00211049   -0.00370639

     Total force =     0.010416     Total SCF correction =     0.000340

     negative rho (up, down):  1.672E-02 0.000E+00

     negative rho (up, down):  1.672E-02 0.000E+00

     negative rho (up, down):  1.672E-02 0.000E+00

     negative rho (up, down):  1.672E-02 0.000E+00

     negative rho (up, down):  1.672E-02 0.000E+00

     negative rho (up, down):  1.672E-02 0.000E+00

     negative rho (up, down):  1.672E-02 0.000E+00

     negative rho (up, down):  1.672E-02 0.000E+00

     negative rho (up, down):  1.672E-02 0.000E+00

     negative rho (up, down):  1.672E-02 0.000E+00

     negative rho (up, down):  1.672E-02 0.000E+00

     negative rho (up, down):  1.672E-02 0.000E+00

     negative rho (up, down):  1.672E-02 0.000E+00

     negative rho (up, down):  1.672E-02 0.000E+00

     negative rho (up, down):  1.672E-02 0.000E+00

     negative rho (up, down):  1.672E-02 0.000E+00

     negative rho (up, down):  1.672E-02 0.000E+00

     negative rho (up, down):  1.672E-02 0.000E+00

     negative rho (up, down):  1.672E-02 0.000E+00

     negative rho (up, down):  1.672E-02 0.000E+00

     negative rho (up, down):  1.672E-02 0.000E+00

     negative rho (up, down):  1.672E-02 0.000E+00

     negative rho (up, down):  1.672E-02 0.000E+00

     negative rho (up, down):  1.672E-02 0.000E+00

     negative rho (up, down):  1.672E-02 0.000E+00

     negative rho (up, down):  1.672E-02 0.000E+00

     negative rho (up, down):  1.672E-02 0.000E+00

     negative rho (up, down):  1.672E-02 0.000E+00

     negative rho (up, down):  1.672E-02 0.000E+00

     negative rho (up, down):  1.672E-02 0.000E+00

     negative rho (up, down):  1.672E-02 0.000E+00

     negative rho (up, down):  1.672E-02 0.000E+00

     negative rho (up, down):  1.672E-02 0.000E+00

     negative rho (up, down):  1.672E-02 0.000E+00
 BEEFens 2000 ensemble energies
             -0.137218839889659E+01
             -0.461809041580588E-01
             -0.272447046838743E+00
              0.937077104924731E+00
             -0.444418372030883E+00
             -0.319211342162310E+00
             -0.100395081894980E+01
             -0.206029883692467E+01
             -0.691278566171540E+00
             -0.757531836994414E+00
             -0.766819828765309E+00
              0.128552632432495E+00
              0.769524921827687E-01
             -0.114373397722543E+00
              0.813688075441394E-01
              0.997224934766491E+00
             -0.404227019871343E+00
             -0.178359122856494E+00
              0.526808479613212E+00
             -0.232297501684694E+01
              0.118131679441402E+01
             -0.400202307629570E+00
             -0.137430618312848E+00
             -0.180740055045460E+00
              0.746328921158153E-01
             -0.839345012865675E-01
              0.185138536260948E+01
             -0.519363320979806E+00
             -0.151150244290189E+00
             -0.119136718035060E+01
              0.141480352141645E+01
             -0.580095738418094E-01
             -0.877661048348774E+00
              0.355883898079569E+00
             -0.624913185353648E-01
              0.638690716816019E+00
              0.471051113645737E-01
             -0.226563780156193E-01
              0.840362199172554E+00
             -0.207756580767727E+01
              0.116437891781174E+01
              0.254196155737882E+00
             -0.281977253146476E+00
             -0.607311684205283E+00
              0.263027599392438E+00
             -0.392550359250098E+00
              0.108178812243561E+01
              0.730155838349985E+00
             -0.378876664619060E+00
             -0.676265864827094E+00
             -0.669629264591068E+00
             -0.794868174977881E+00
              0.504846321246897E+00
             -0.110014235478688E+01
              0.347871475672807E+00
              0.128252919763671E+01
              0.160420434909077E+01
              0.669271792155311E+00
              0.332994815852913E+00
              0.699750861000924E+00
              0.192888547884472E+01
              0.322945269868892E+00
             -0.115789257504393E+01
             -0.186274010008683E+00
             -0.633715396876153E+00
              0.130981530160997E+01
             -0.148869037149299E+01
             -0.125115936627170E+01
             -0.740869860503181E+00
             -0.431223650766105E+00
             -0.789845185056356E+00
              0.583952977446985E+00
              0.285378786084991E+00
              0.335799559399347E+00
             -0.820119624383952E+00
             -0.751275004836324E+00
             -0.124988255672903E+01
              0.651017923934152E+00
             -0.734966611196460E+00
              0.693720614993392E+00
             -0.186906214044097E+00
             -0.588872906312651E+00
             -0.103105208404803E+01
             -0.313659385210812E+00
             -0.359777219402227E+00
             -0.290412225116302E+00
              0.817576083468890E+00
              0.166913316650342E+01
             -0.960466515232242E+00
             -0.166356127413685E+01
             -0.380609080282758E+00
              0.227975206521390E+01
             -0.119123643592088E+01
              0.650477765012163E+00
             -0.247534328717947E+00
             -0.122736312852749E+01
              0.571107752151213E+00
              0.609635878796382E+00
             -0.326776847155565E+00
              0.593458677084749E+00
             -0.516143451250770E+00
             -0.131316836208937E+01
              0.215319290053268E+01
              0.950298959195457E+00
              0.421545016887264E+00
              0.262647834371990E+00
              0.504707869005415E+00
              0.170620972446465E+01
             -0.557512498133239E+00
              0.568748527684315E-01
             -0.289648538513494E+01
              0.356491228859186E+00
             -0.139095992867256E+01
              0.263950702051014E+00
              0.454522839605543E+00
             -0.787809639356345E+00
             -0.104736489064976E+01
              0.442195607868854E-01
             -0.661283966268213E+00
              0.948631781499760E+00
             -0.948831562554027E+00
             -0.192004725233353E+00
             -0.807447008347606E+00
             -0.663305164375663E-01
              0.120460679815755E+00
              0.517400363433135E+00
             -0.860726123050881E-04
             -0.119668904797582E+00
              0.142458323300008E+01
              0.194013010444621E+01
              0.105490916189285E+01
              0.133330425824230E+01
             -0.271305124301468E+00
              0.169409286091978E+00
              0.107081502681229E+01
              0.140063012157405E+00
             -0.160524045734285E+01
             -0.958090539972173E+00
             -0.103554071645525E+01
             -0.617204096633202E+00
              0.542544060839567E+00
             -0.256553091510310E+01
             -0.260188050271813E+00
              0.987565878379715E+00
             -0.851677521036404E+00
             -0.609548803750467E+00
              0.124508795757210E+01
              0.102495988848520E+01
             -0.595833849810351E+00
              0.729456064835075E+00
             -0.540481055481044E+00
              0.797423233426466E+00
              0.132695077089579E+00
              0.201130524266580E+00
             -0.171711452986246E+01
             -0.992234709907878E+00
             -0.186193917006749E+00
             -0.869800779016947E-01
             -0.898311059599564E+00
              0.235497961615150E+01
             -0.219154541761311E+00
             -0.565553142771740E+00
              0.811259968125729E+00
             -0.925477379964332E+00
             -0.816305639514730E+00
              0.691507573714382E+00
              0.267704116197967E+00
              0.225158336003313E+00
              0.362552303845061E+00
             -0.226249009067464E+00
              0.188328250689946E+00
              0.120924140592724E+01
             -0.549392382139187E+00
              0.463815209669792E+00
              0.186790730033184E+01
              0.671138604879618E+00
             -0.707997894449104E-01
             -0.453857712793095E+00
              0.327062561772922E+01
             -0.548527510191950E+00
              0.842098979032713E+00
              0.667822768642956E+00
              0.553524030571503E+00
              0.194716578074364E+01
              0.967992005167636E+00
             -0.102464284092525E+00
              0.544505546856158E+00
              0.111915315757260E+01
              0.804660882151679E+00
             -0.129243687958133E+01
              0.198978438785295E+01
             -0.180938315700825E+01
             -0.209045736168962E+00
              0.116856793389757E+01
              0.395171838881359E+00
              0.120985794102650E+00
              0.553350734024668E+00
              0.328344321443963E+00
              0.675715219824190E+00
             -0.130926214697060E+01
              0.641780889988119E-01
             -0.490747502986993E+00
             -0.104258100337159E+00
             -0.725181982165264E-01
             -0.296140859290642E+00
             -0.137850252787755E+00
              0.174913595243357E+01
             -0.947063827525390E-01
             -0.600489886487145E+00
             -0.239735647594661E-01
              0.308980849745308E+00
             -0.136005809733913E+01
             -0.120250956968924E+01
             -0.702419819542683E+00
             -0.133856230162620E+01
             -0.408834573418002E+00
             -0.849496921139621E+00
              0.367532372511848E+00
              0.520909545756321E-01
             -0.273722204189023E+00
             -0.168083759245613E+00
              0.100240459551659E+00
             -0.253943925164705E+00
              0.137769728717076E+01
             -0.186500690687733E+01
             -0.276257319905715E+00
             -0.272027638751617E+00
              0.312453547444706E+00
              0.493288647246763E+00
             -0.108619923896417E+01
             -0.247832913939773E+00
              0.945114474384351E+00
             -0.405878682024413E+00
              0.297085450339719E+00
              0.692222384245818E+00
             -0.194112918846994E-01
              0.242423226535831E+01
             -0.199509845359580E+00
             -0.726450641359277E+00
             -0.139035225067987E-01
             -0.609860500731084E+00
              0.114558468459437E+01
             -0.104557364420593E+01
              0.309573611806730E+00
              0.101188496115100E+01
             -0.259835024748718E+00
              0.248823649319537E+01
              0.268301926861235E+01
             -0.149809825354849E+01
              0.122023317799885E+01
              0.518627898921160E+00
             -0.119042789373435E+01
              0.358971429991735E+00
              0.937945787359774E+00
              0.100326907606762E+01
              0.910396692835347E-01
              0.411874614787166E+00
              0.159214746325323E+01
             -0.490585465865219E+00
              0.190880801040216E+00
              0.138565356181398E+01
             -0.746279231182999E+00
             -0.538357329312515E+00
              0.127484776158630E+01
              0.660407447985961E+00
              0.161029319587697E+01
              0.734943298663429E+00
              0.306367083764357E+00
              0.514339594089459E+00
              0.907623875902388E+00
             -0.114406580240880E+01
              0.176355794112733E+00
              0.619037880016836E+00
              0.242701138203875E+00
              0.521432596865635E+00
             -0.132425044085388E+01
              0.672441201149740E+00
             -0.907303943174943E+00
             -0.668422749377859E+00
              0.435106228775175E+00
             -0.166141347598436E+00
              0.129500389074181E+01
             -0.264476407310816E+00
              0.620880455129449E+00
              0.632469739886570E+00
              0.162502648824703E+01
              0.109906310163863E+01
              0.108375295912732E+01
             -0.143312888775231E-01
             -0.257399940377560E+00
             -0.622767271292462E+00
              0.174889363110026E+01
              0.174504053269638E+01
              0.838928759530515E+00
             -0.609503204609209E+00
              0.104068128588503E+01
              0.222079936397925E-01
              0.331681896741323E+00
              0.147858888264297E+01
             -0.512533199413356E-01
             -0.213845856698669E+00
             -0.424768619278204E+00
             -0.133168193303629E+01
              0.204275826936734E+01
              0.110778255995472E+01
             -0.139177050241481E+01
             -0.468005863986195E+00
              0.506846082571222E+00
             -0.210004179324027E+00
              0.139161857480691E+01
              0.325384786459409E+00
              0.171857735946795E+01
              0.663979595248154E+00
             -0.464784837095060E+00
              0.365233559464690E+00
             -0.148827449374584E+00
             -0.509582154505893E+00
              0.348335188808803E+00
              0.323929238824448E+00
              0.193291266397792E+01
              0.160455946612257E+01
              0.121997306220255E+01
              0.140505734807711E+01
              0.151009279570751E+00
             -0.544099098054028E+00
              0.284833382062740E+00
             -0.691915373216899E+00
             -0.121338460237551E+01
             -0.117903338917999E+01
             -0.680308884505711E+00
             -0.228000348799592E+01
             -0.804351499277147E+00
             -0.183694846271230E+01
              0.450507518012396E+00
             -0.946638940956933E+00
              0.109421211486865E+01
             -0.210198754816198E+01
             -0.635804013721963E+00
              0.786587825992376E+00
              0.459259877873542E+00
             -0.193342772421155E+01
              0.110422818836075E+01
             -0.611402435695213E+00
              0.116405517888049E+01
             -0.549362953858255E+00
             -0.165368575307788E+01
              0.361405653844505E+00
             -0.138592745518561E+01
             -0.416114270097161E-01
             -0.441113981478969E-01
              0.857658810027897E+00
              0.266400930496578E+01
             -0.898438598604563E+00
             -0.794451025693612E+00
             -0.147174940712922E+00
             -0.148057157060391E+00
             -0.169623470841796E+01
             -0.118946850796896E+01
              0.104889781117531E+01
             -0.362594768621683E+00
              0.500170380036403E+00
             -0.103144048516390E+01
             -0.340658876472194E+00
             -0.878323063030089E+00
              0.102315909986639E+01
              0.243989925750961E+00
             -0.526218060856875E+00
             -0.393681491753981E+00
              0.288125614997846E+00
             -0.145976788732876E+00
              0.836336603090150E+00
             -0.553369898587020E+00
              0.258561984074149E+00
              0.728531646405996E+00
              0.247011890706590E+00
             -0.520235159954964E+00
              0.327152323410486E+01
              0.127917176976517E+01
              0.219877221136147E+00
              0.131068260369908E+00
             -0.128109879939125E+01
              0.710057327769905E+00
             -0.166022101256981E+01
             -0.735530077674994E+00
             -0.127328835712083E+01
             -0.393575101164055E+00
              0.127071231119282E+01
             -0.122468889493516E+01
              0.578131469799506E+00
             -0.106468743160613E+00
              0.209809559559329E-01
             -0.656711621830521E+00
             -0.879009900508418E+00
             -0.164477204048991E+00
             -0.664707476443046E+00
             -0.462097246690962E+00
             -0.848028150118057E+00
             -0.105868611576627E+00
             -0.668493196776468E+00
             -0.102172877089034E+01
              0.430261711340762E+00
             -0.236680385697711E+00
              0.512658268588559E+00
              0.171237803572182E+00
             -0.160578311976589E+01
             -0.106303609914349E+01
             -0.108806808347388E+01
              0.652358015901402E+00
             -0.150693204885484E+00
             -0.128116977817935E+01
              0.121226786154442E+01
             -0.903872349032750E+00
              0.126838763868499E+01
             -0.663001491046723E+00
             -0.102245170772698E+01
              0.509757267746798E+00
             -0.153706202023753E+01
             -0.658445230265697E+00
              0.122562226576305E+01
              0.442965711279262E+00
             -0.938239293287301E+00
              0.118193287840434E+01
             -0.343284268163098E+00
             -0.784906004739936E+00
             -0.624261495444967E+00
             -0.111133373308047E+01
              0.560222192276304E+00
             -0.184882735600459E+01
             -0.160200235744248E+01
             -0.165382265871383E+00
             -0.618284048475115E+00
             -0.129057164826631E+01
              0.162015136623316E+01
              0.292657394734968E+01
             -0.437569240190607E+00
             -0.878296358934554E-01
             -0.126451663004824E+01
              0.140929784113341E+01
              0.460362466188296E+00
             -0.447029712383976E+00
             -0.765965507639265E+00
              0.297046138905916E+00
             -0.125152755422646E+01
             -0.236817756294729E+00
             -0.180727676406628E+01
              0.716842012165156E+00
              0.229671146164043E+00
             -0.119285061097804E+00
             -0.269055514663455E+00
             -0.901846224941846E+00
             -0.291578494553896E+00
              0.290778690035431E+01
             -0.331231265672788E+00
             -0.104121655952239E+01
             -0.147536136993043E+01
              0.303984548469002E+00
             -0.821051636886788E+00
              0.218064702622576E+00
              0.706517527721456E+00
              0.112427158585887E+00
              0.770798394252023E+00
              0.396850574229464E+00
              0.125257993479089E+01
              0.513576108854663E+00
             -0.784298598018721E+00
              0.117477893270634E+01
              0.725982720487145E+00
              0.265048738380347E+00
              0.779891640820096E+00
             -0.685802112187037E+00
              0.151062029769262E+01
              0.562421157275285E+00
             -0.736905101824144E+00
             -0.118012276620909E+00
             -0.354859419210531E+00
              0.321875292504795E+00
             -0.525054954437352E+00
             -0.266578871204886E+00
             -0.265906334491548E+00
              0.172193112172792E+01
              0.123164943681874E+01
             -0.133704562761409E+01
             -0.178405601008279E+00
             -0.104503738037919E+01
             -0.266847954118452E+00
             -0.450143015099707E+00
              0.236456652604602E+00
             -0.583052423288578E-01
             -0.609637085928170E+00
              0.365922513424469E+00
             -0.199371748065917E+00
             -0.139893755138952E+00
              0.184982507328522E+01
              0.309733161662535E+00
             -0.179087295227656E+01
             -0.809901267572764E+00
              0.205283109629304E+01
              0.501017764633305E+00
             -0.180102040072093E+00
              0.233042213094175E+01
             -0.338374399726469E+00
             -0.161637656425520E+00
             -0.263243933116820E+00
              0.332671207728247E+00
              0.723570795715538E+00
              0.561666782686661E-01
              0.606222382196325E+00
             -0.235046276889615E+00
             -0.867132087791318E+00
             -0.843321590432690E+00
             -0.101806711874829E+01
              0.861931574699419E+00
              0.307882728664742E+00
              0.803908941445143E+00
              0.340435698009824E+00
              0.191645774710815E+01
              0.430938880686295E+00
             -0.164427766089782E+01
             -0.696198721917712E+00
              0.502617416258373E-01
             -0.591490443632992E+00
              0.135626268437761E+01
             -0.329512463155236E+00
              0.352499141768046E+00
              0.117611254412896E+01
             -0.172307221176252E+01
              0.312505031477576E+01
              0.415927860716210E+00
              0.516216007229639E+00
              0.811245405049127E+00
              0.621474475012871E-01
             -0.428432317083152E-01
              0.673602816131703E+00
             -0.748183326958941E+00
              0.185064027445024E+01
              0.161570218355877E+01
             -0.825717056399267E+00
              0.355181209321394E+00
              0.153223753896701E+01
             -0.451599131151054E+00
              0.448989672786987E+00
              0.683872859830540E+00
              0.872328092290840E+00
             -0.157214713969533E+01
             -0.119343641121352E+00
             -0.549181721498307E+00
             -0.126633389612222E+00
             -0.154497541013238E+00
              0.164135795109166E+00
             -0.264079159219492E+00
             -0.650112218949907E+00
              0.360440040481770E+00
              0.128333569508189E+00
              0.112831171656621E+01
             -0.990238598722755E+00
              0.988398976156208E+00
              0.107764645818102E+01
             -0.173685705156535E+00
              0.157568882324980E+01
             -0.143422996289129E+01
             -0.219601846495744E+01
             -0.183801678467679E+00
             -0.135196038827219E+00
             -0.189215646866181E-02
              0.166585653744806E+01
             -0.249228416387024E-01
              0.910198510874487E+00
              0.126870230444350E+01
              0.831040019624581E+00
             -0.137134063543579E+00
              0.124641613736077E+01
             -0.356051811774443E+00
             -0.830583519638063E+00
             -0.744534993201074E+00
              0.222736834389373E+00
              0.723414372227261E+00
             -0.575641926853696E-01
              0.706005988966858E+00
              0.327507091291945E-02
              0.117505890512644E+01
              0.336099415827597E+00
              0.174300509820084E+00
              0.186364949071613E-01
              0.618839025827853E+00
              0.869422269284423E+00
              0.315177938747858E+00
             -0.706413314124816E-01
             -0.115541368514839E+01
              0.640921963885535E+00
              0.441949313596896E+00
              0.695045056648609E+00
              0.632359390164198E+00
              0.778984568676571E+00
             -0.191999231880522E+00
              0.733128539249043E+00
             -0.642104952193396E+00
             -0.383208080664019E-01
             -0.111782757010348E+01
             -0.738465682045191E+00
              0.913004916510771E+00
             -0.187618590673837E+01
              0.507646035815585E+00
              0.297020975758040E+00
              0.184986360439871E+01
             -0.260766690750228E+00
              0.711174532741766E+00
             -0.249708639405387E+00
             -0.105360800956620E+01
             -0.139346587082418E+01
             -0.331979883641552E+00
             -0.193612615452318E+01
              0.175091386175108E+00
             -0.450214413244576E+00
              0.702577478329216E+00
              0.537139629193572E+00
             -0.616446711127792E+00
             -0.649193672395498E+00
              0.909422695402997E+00
             -0.122111939061450E+01
             -0.299259320858758E+00
             -0.345732138087720E+00
              0.570204945012731E+00
              0.115239891456934E+00
              0.837554496612682E-01
             -0.312938428460589E+00
              0.114484642534000E+01
             -0.128558720007791E+01
              0.140838058904714E+00
              0.128518113805207E+01
             -0.779293028098101E+00
              0.872226660835826E-01
              0.347114414934921E-01
             -0.137431100913073E+01
             -0.800579178825886E+00
             -0.328434315852993E-01
              0.666579844758930E+00
              0.742317187117183E+00
              0.103057185650302E+00
             -0.256689168892413E+00
              0.348167745408318E+00
             -0.845408068664796E+00
             -0.100978663929943E+00
             -0.112134891233652E+01
             -0.574055866550101E+00
              0.107547926964150E+01
             -0.651045590709633E+00
              0.149679999235089E+01
             -0.503416796495147E+00
              0.698116548659588E+00
              0.542052149552341E+00
             -0.127523517741943E+01
             -0.531050436403676E+00
              0.213294589346647E+00
             -0.902116694897871E+00
             -0.871644470638121E+00
             -0.190324375802613E+01
             -0.117168188998373E+01
             -0.105159935023256E+01
             -0.961144593565137E+00
              0.751205106454211E-03
              0.525004040684861E+00
              0.256208068000571E+00
              0.589772591687108E+00
             -0.124762115233529E+01
              0.284959195402431E+00
              0.627928230144257E+00
             -0.145672050888362E+01
             -0.121705770339493E+01
             -0.842033436006229E+00
             -0.704794014616426E+00
              0.299095983272329E+00
             -0.595849029474653E-01
             -0.877083941996095E+00
              0.591983843945830E+00
             -0.495074637077727E+00
              0.111270628463463E+01
             -0.187812587237305E+01
              0.137458835348118E+01
             -0.256302444471652E+00
             -0.935877643264531E+00
             -0.578283768084339E+00
             -0.195910618596806E-01
              0.103577605088190E+01
             -0.148138222192969E+01
             -0.268390580087596E+00
             -0.357020912687668E+00
              0.873516032000398E+00
              0.171143674544948E+01
             -0.214418006343763E+01
              0.194800600504036E+01
              0.809733176493655E+00
             -0.161727908714586E+01
             -0.663502355661792E+00
              0.167891424855987E+01
              0.121126728061327E+01
             -0.447735932187181E+00
             -0.149198498801278E+00
              0.387252409700894E+00
              0.165185338501268E+01
             -0.126705348125660E+01
              0.269583415567539E+00
             -0.164019615041624E+00
              0.557988105082394E+00
             -0.150015200022984E+01
             -0.492635727901612E-01
             -0.564029357670818E+00
              0.102819055699151E+01
              0.817528780208540E+00
             -0.191017426614784E+01
             -0.100834141883091E+01
             -0.440016028469854E+00
             -0.934882134937802E+00
             -0.260659349370161E+00
             -0.366471407810651E+00
              0.968830870251868E+00
              0.912024817987926E+00
             -0.262193298890683E-01
             -0.938257640648102E+00
             -0.184569247995104E+01
              0.108365217209499E+01
             -0.976219673384484E+00
             -0.801973221941761E+00
              0.160652962270086E+00
             -0.798995177083386E+00
             -0.862230222446366E+00
             -0.663851586573415E+00
             -0.109460363071525E+01
             -0.505745952674950E+00
             -0.104753779000753E+01
              0.116550029053256E+01
              0.124085434586932E+01
             -0.233811811668533E+00
             -0.442748201029280E+00
              0.661759902736598E-01
              0.897124044212074E+00
             -0.179659370288472E+01
             -0.492848766906276E+00
              0.105414758214578E+01
              0.154162264228628E+01
             -0.211064493994812E+00
              0.211118844371656E+00
              0.112142954150194E+01
              0.327037599138313E+00
              0.418484774926551E-01
             -0.833316355899795E+00
              0.312771184498713E+00
             -0.686775391008164E+00
             -0.151624158297180E+00
             -0.449434173503916E+00
             -0.300949940993164E+00
              0.523407351918962E+00
              0.168143476749188E+01
             -0.157300598244172E+00
              0.390458982247286E-01
             -0.194595923182814E+01
             -0.379957727536349E+00
             -0.752839843424126E+00
             -0.324630962655288E-01
             -0.101326759529112E+01
              0.192028216858333E+01
              0.184754391134624E+01
              0.393937023318151E+00
             -0.502535310705630E+00
              0.394022077404937E+00
              0.430124634703343E+00
             -0.987610044787215E+00
             -0.210547857234030E+00
              0.428230802154804E+00
              0.259832180569416E+00
              0.108442144114343E+01
              0.827097224223973E+00
             -0.438672486423394E+00
              0.449218575999374E+00
             -0.207551596938804E+01
             -0.269514944599092E-01
              0.191408239070325E+01
              0.396919303705061E+00
             -0.635307889368679E-01
              0.571663747030720E+00
             -0.511827657442587E+00
              0.185327871715341E+01
             -0.436460948625490E+00
              0.164956881430808E+01
              0.813232320208453E+00
             -0.952294681534219E+00
              0.710085629123773E+00
             -0.598182243720944E+00
             -0.145027996827237E+01
             -0.166922701506599E+00
             -0.114481451881556E+01
             -0.111424188649254E+01
             -0.332764535281962E-01
              0.803604501322022E+00
             -0.301455301299590E+00
             -0.646521869459605E+00
              0.161462740889107E+00
             -0.139793841273431E+01
             -0.705589242064137E-01
             -0.186009320908017E+01
              0.110275591790198E+01
             -0.752872836941352E-01
             -0.104237905196159E+01
             -0.331059827440018E+00
              0.379671886554618E+00
             -0.812805131461912E+00
             -0.937494299693096E+00
              0.195039270335260E+01
             -0.591870424835638E+00
             -0.789508354741773E+00
              0.689604136780848E+00
             -0.469867578184335E+00
              0.122443235028870E+01
             -0.604153566761845E-01
              0.548446926499189E-01
              0.234058264200492E+01
             -0.180035885979945E+00
             -0.816682396393690E+00
             -0.100804987259142E+01
             -0.108642028133374E+01
             -0.796385698508731E+00
              0.615221365873355E+00
              0.663820108909135E+00
              0.594035975442050E+00
              0.158338410120925E+01
              0.121288372353712E+00
              0.491551857383628E+00
             -0.122877710185713E+01
              0.458439204774086E-01
             -0.333472198255484E+00
             -0.598376945410729E+00
             -0.149327661405410E+00
              0.698108706875819E+00
              0.812826066434635E+00
             -0.482387869208906E-01
              0.282931028767688E+00
              0.581928313312448E+00
              0.728279077902463E+00
             -0.507720601383256E+00
             -0.205339868395273E+00
              0.501236965160512E-02
             -0.553372739788530E+00
             -0.639681574877944E-01
             -0.847786337192298E+00
              0.168761373304890E+01
              0.131773534053690E+01
             -0.401598155160691E+00
              0.362132994297561E+00
             -0.126172273480222E+00
             -0.673210504692958E+00
              0.792194545237140E+00
             -0.196808397170187E+00
              0.789773376392136E+00
             -0.102089968254382E+01
              0.388433830222869E+00
             -0.175937715715623E+00
             -0.114491466898360E+01
             -0.524491912255865E+00
              0.522411971562573E+00
             -0.208124477664646E+01
              0.822215482163990E+00
              0.995603422643369E+00
             -0.213856974572767E+00
             -0.162394278511886E+00
             -0.907434329331007E-01
              0.564896130157722E+00
             -0.730288241633906E+00
              0.668358400819290E+00
              0.679011492884685E+00
             -0.193149250426124E+01
             -0.781824359015038E+00
              0.516639123500229E+00
             -0.256838641575892E+00
              0.104617395115346E+01
             -0.131879476176785E+01
             -0.224221665900167E+00
             -0.848931176843569E+00
             -0.277908468523901E+01
              0.167936813187073E+01
             -0.126899153864913E+01
             -0.142967174223356E+01
              0.140342852684695E+00
              0.274953996823474E+01
              0.146149042926729E+00
             -0.691294249093515E+00
             -0.296927126624169E-01
             -0.772634268631101E-01
             -0.181712722949986E+01
             -0.117372886931182E+01
              0.182527995374379E+01
             -0.258211671585586E+00
             -0.773372983225285E+00
              0.103802034138890E+01
             -0.693390158035829E+00
              0.711791363584640E+00
              0.104040413536451E+01
             -0.112747064492793E+01
             -0.590074983769409E+00
             -0.682395872828443E+00
             -0.370600815609458E+00
             -0.411996837643611E+00
             -0.391129660115505E+00
              0.422169495712804E+00
             -0.758881502935551E+00
              0.596275757320031E+00
              0.117589396140891E+01
             -0.140416435373747E+00
             -0.446227641114237E+00
              0.325626265944555E+00
              0.116748839739496E+01
              0.117090992130026E+01
              0.228964030383638E+00
             -0.220719827845286E+00
             -0.236059261854836E+00
             -0.113021969008096E+01
              0.867449159736380E+00
             -0.521850026814415E+00
              0.488523825550939E+00
             -0.287211969270929E+00
              0.554186204184489E+00
              0.363845992808469E+00
             -0.173305189823102E+01
             -0.542061770462295E+00
             -0.167565581308851E+01
             -0.845028342110007E+00
              0.836469648061429E-01
             -0.419835017021674E+00
              0.752394432717248E+00
             -0.614402674109334E+00
              0.813770027601290E-01
              0.156219680726080E+00
              0.149195877864694E+01
              0.777697675570474E+00
             -0.689815399042623E+00
             -0.491133758176230E-01
              0.322515777925535E+00
              0.793384888278182E+00
             -0.162167110977380E-01
              0.120504072212841E+01
              0.577043300587142E+00
              0.191065712700786E+01
              0.715600382627986E-01
              0.132932823099306E+01
             -0.591086970326770E+00
             -0.834587816461792E+00
              0.462888841599014E-01
              0.226144935327035E+00
              0.479726845843380E+00
             -0.439550469124420E+00
             -0.236486153757563E+00
              0.501675711012971E+00
             -0.101131275040555E+01
             -0.127778267652188E+01
              0.169137760239432E+01
             -0.138473968097019E+00
             -0.783396257571613E+00
             -0.104367319313528E+00
             -0.293344941359209E+00
              0.938333084772301E+00
              0.766243452737906E+00
             -0.443215665992517E+00
              0.109554512595458E-01
             -0.546199783634403E+00
             -0.758886641518304E+00
             -0.506174772679206E+00
             -0.207834989220654E+01
              0.343194814953423E-01
             -0.137150697090271E+01
             -0.125533391392042E+01
             -0.797405680296620E+00
              0.469857382734258E+00
             -0.819572331250184E+00
              0.509116101313910E+00
             -0.138184268678542E+01
             -0.105034911710078E-02
             -0.894742645264031E+00
              0.180496141497405E+00
              0.170357534931278E+00
              0.759183449527639E+00
             -0.445536890465190E+00
             -0.392580044429900E+00
              0.683212757420154E+00
              0.127042453304688E+01
              0.691638368723904E+00
              0.225358158144562E+00
             -0.158887907504254E+01
             -0.338782678356882E+00
             -0.600418119718586E+00
             -0.130703087490760E+01
              0.921744406759689E+00
             -0.735213804671762E+00
             -0.157285233703750E+00
             -0.591172177858396E+00
             -0.211089711451725E+01
              0.118555159770108E+01
             -0.391180987986880E+00
              0.828329238978139E+00
             -0.157732466762663E+01
              0.140164037643241E+01
              0.134266159830329E+00
             -0.550261774778901E+00
              0.218362615972088E+00
             -0.423197931434563E+00
             -0.133969314584452E+01
              0.364112042073431E+00
              0.839405391961855E+00
             -0.276355006112841E-01
             -0.735993580756118E+00
             -0.344696958128129E+00
              0.440264397912536E+00
              0.782155372617471E+00
              0.131470760937037E+01
              0.485090625832513E+00
             -0.486006094238756E+00
              0.213432270772856E+01
              0.453711598052949E+00
              0.101043533542598E+01
             -0.364447102689894E+00
              0.622803520946769E+00
              0.507398833730683E+00
             -0.132066894286662E+01
             -0.470646079335983E+00
             -0.866113260801423E+00
             -0.884730170807610E+00
             -0.264173196554740E+00
             -0.182946792819592E+00
             -0.988650368080624E+00
             -0.236360428038858E+01
             -0.577431530579223E+00
              0.286544446279661E+00
              0.129818876386192E+00
              0.336781006926791E+00
              0.861784861413248E+00
              0.219907039894685E+00
              0.673356930399878E+00
             -0.916246036579626E+00
              0.921235361196285E+00
             -0.840174521764283E+00
             -0.143617183578890E+01
              0.426120899659232E+00
             -0.900262976331249E+00
             -0.846428934553123E+00
             -0.339660874949120E+01
             -0.160735844044442E+00
              0.179854202879883E+01
              0.876199015642946E+00
             -0.223218227003780E+00
             -0.220275133938153E+00
              0.946751968032634E+00
              0.136093479609361E+01
             -0.843847193845719E+00
             -0.265532331382410E+00
             -0.772215852977051E+00
             -0.712170161128830E+00
             -0.628105289522750E+00
              0.224791335304509E+00
              0.147501070711196E+01
             -0.138465983075040E+01
             -0.115829648486335E+01
              0.779296787583323E-01
             -0.303840356815575E+00
             -0.362101326305718E+00
             -0.190090022630363E+01
              0.133847328647139E+01
              0.428582984531584E+00
              0.201733940174670E+00
              0.110238479479850E+01
             -0.702586290340108E+00
              0.707901874390923E+00
              0.612967437547083E+00
              0.261690547873918E-01
             -0.168982730787297E+00
              0.180924611423657E+00
             -0.331355725516133E+00
              0.111892511999369E+01
             -0.839677209732824E+00
              0.989751380940483E+00
              0.191082121550986E+00
              0.360451276293320E+00
              0.429052060087313E+00
             -0.174002029544753E+01
              0.222718083130318E+00
             -0.142257287656894E+01
             -0.102374193326318E+01
             -0.100956175715310E+01
             -0.111569046118770E+01
              0.103689066478907E-02
              0.401877974477475E+00
              0.106111834144198E+01
              0.155122943236881E+00
              0.321862532799176E+00
             -0.147563403332730E+01
             -0.585683723662390E+00
              0.693850116203112E+00
             -0.760234367133155E-01
             -0.701569762482768E-01
             -0.205831335443975E+00
              0.755838515533886E+00
             -0.193447518021077E+01
              0.274371394150940E+00
              0.434980621607927E+00
              0.832898547145941E+00
              0.780802771137024E+00
             -0.120423692557381E+01
              0.339498213336361E+00
              0.139163122523859E+00
              0.144268007229732E+00
              0.126793392283705E+00
             -0.419752333715617E+00
             -0.912837822334811E+00
              0.378057740885106E+00
              0.124384723787964E+01
             -0.305872067064179E-01
              0.290222380193399E+00
              0.273952853587179E+00
             -0.656099400761357E+00
             -0.697810116204995E+00
             -0.261026871772449E+01
             -0.804633676533735E+00
             -0.125153477590468E+01
             -0.131098088319675E+00
             -0.145208056474129E+01
              0.160794792205223E+01
             -0.717623023559181E+00
             -0.117878731486799E+01
             -0.334374226232219E+01
              0.142829612152033E+01
              0.318314860605661E+00
              0.220807327926380E+00
             -0.130548172984996E+01
              0.970413936009642E-01
             -0.364505035296975E+00
             -0.667731382874464E+00
              0.179468298035291E+00
              0.695718173096951E+00
              0.103768957831795E+00
             -0.441387023463570E+00
              0.813328439616186E-01
              0.347315176599672E-01
              0.232209675628866E+00
             -0.142144953596076E+01
              0.156940535855783E+01
             -0.884199863883769E+00
             -0.565831267567153E+00
             -0.109422485022524E+01
             -0.233474146998835E+01
              0.969599403823134E-01
             -0.122688492837859E+01
             -0.389269726617219E+00
              0.658748213492297E+00
             -0.573639299600906E+00
             -0.240032902788204E+00
             -0.278196085179152E+00
             -0.418566715338347E+00
              0.710060359588174E-01
              0.110225430195141E+01
             -0.106836976517119E+01
              0.220591166892765E+01
             -0.542815036524916E+00
              0.691604203209901E+00
             -0.375087652835023E+00
              0.249927015291051E+00
             -0.252474504157704E+00
              0.949285715501302E+00
              0.132494350842920E+01
              0.387082620139146E+00
              0.930666316466531E+00
             -0.629788354041345E+00
             -0.159314933040539E+00
             -0.494473440568935E+00
              0.136439731481365E+01
              0.117375188461672E+01
              0.855277582946723E+00
             -0.268650821424199E+00
             -0.548419859481713E+00
              0.516377913991218E+00
             -0.631183806872002E+00
             -0.316544313827029E+00
             -0.122969816267777E+00
             -0.749266108181065E+00
              0.104039436963566E+01
             -0.233417202224185E+00
              0.766781079384002E+00
              0.471119094177453E+00
              0.319383794339357E+00
             -0.715644204747776E+00
              0.526926812828184E+00
             -0.295156240946525E+00
             -0.156944526681852E+00
             -0.220824382450813E-01
             -0.102348089758886E+01
              0.165121774097919E+01
             -0.560563825761291E+00
             -0.604313031391257E-02
              0.521281024599622E+00
              0.452825788769924E+00
              0.164949889859038E+01
             -0.450992328086368E+00
              0.159336213655197E+01
              0.141771394033619E+01
             -0.198026228654570E+01
              0.146574215332990E+00
             -0.395098533905173E+00
              0.265473743069383E+00
              0.107891205893767E+00
              0.453308326822770E+00
              0.135877863871047E+01
              0.212525360842322E+01
             -0.155723161011915E+01
              0.162010359507539E+01
             -0.213739366637008E+01
             -0.184297091950914E+01
             -0.314147985856218E+00
              0.171229255451335E-01
              0.167165567722451E+01
              0.696407409868554E+00
             -0.283189005407286E+00
             -0.176864744984460E+01
              0.142777682253324E+01
             -0.877051333228533E+00
              0.320038327781660E-01
             -0.118868038365661E+00
              0.275758554200193E+01
             -0.475739207536872E+00
             -0.224167879438159E+01
              0.639513524537536E+00
             -0.344935364967438E+01
              0.274739829527657E+00
             -0.815139077795012E+00
             -0.382733481628526E+00
             -0.549160075912610E+00
             -0.126574869283344E+01
              0.776263930218092E+00
             -0.780264401163698E+00
             -0.289780416428588E+00
             -0.160965382448247E+01
             -0.854480124321366E-01
             -0.114619688497100E+01
             -0.165270795303153E+01
             -0.226375149436635E+01
              0.180405572263835E+00
             -0.794604360463475E+00
              0.216781961304916E+00
             -0.304572924484232E+00
             -0.177659406089022E+01
             -0.137213766659713E+01
             -0.121586932884954E+01
             -0.125365542780842E+01
              0.111820139411268E+01
              0.115046149341741E+00
             -0.105525420936576E+01
             -0.528815380774706E+00
             -0.591369124603624E+00
              0.892316645346443E+00
             -0.638561941097133E+00
             -0.983128504384785E-01
             -0.678868165646797E+00
             -0.834036831251482E+00
             -0.888840003055583E+00
              0.859397399170009E+00
             -0.276215467673680E+00
             -0.196937374376293E+01
              0.164164373884652E+01
              0.963174771774057E+00
              0.610571256165198E-01
             -0.173436306999821E+01
             -0.157620134695345E+01
              0.109325101807217E+00
              0.157504816852780E-01
             -0.718306243210478E+00
             -0.920289236775025E+00
              0.640948508147389E+00
             -0.105083730987525E+00
              0.583495423162898E+00
              0.102351196063422E+01
              0.741043615416818E+00
              0.531981110024446E+00
              0.464492152162472E+00
             -0.477100303902561E+00
             -0.327185408064533E+00
             -0.403409229827615E+00
             -0.812910392837127E+00
             -0.989967769872521E+00
             -0.128340600118140E+01
             -0.764272821888345E+00
             -0.266170841000388E+00
             -0.158555519722600E+01
             -0.358468876127935E+00
              0.776788594803220E+00
             -0.179918715497877E+01
              0.783765884484541E+00
              0.634205987619413E+00
             -0.154042402103557E+01
             -0.118240160881543E+01
             -0.488126791938468E+00
              0.262935325119937E+00
             -0.884895567334013E+00
              0.160705779610452E+01
              0.141678206716168E+01
             -0.164557327634642E+01
              0.877368304332176E+00
              0.768945548474254E+00
              0.223191815384127E+00
              0.402258409290514E+00
             -0.912108858969957E+00
             -0.330286372018671E+00
              0.143140713999983E+00
              0.438450313380579E+00
              0.877043277066509E+00
             -0.114404623269435E+01
             -0.243051303454816E+00
              0.343762060334735E+00
              0.225944044706149E+00
             -0.724523393198125E+00
              0.398927540423644E+00
             -0.527731370066344E+00
             -0.386962413611940E+00
             -0.194376695016896E-01
             -0.131536381119835E+01
             -0.130046875722725E-01
             -0.192250517176385E+00
             -0.321420256258575E+00
              0.332719035639029E+00
             -0.112325400309555E+01
              0.125538370876014E+01
             -0.464767359291805E+00
             -0.285853078708605E+01
             -0.183118620873569E+01
              0.744638433953674E+00
             -0.892701811968392E+00
             -0.451298605472264E+00
             -0.494750762640705E+00
             -0.417124697265333E+00
             -0.220773253750469E+01
             -0.239503079143280E-01
             -0.131989703357534E+01
             -0.735731015169250E+00
              0.410793880488352E+00
              0.169654571700850E+01
              0.103553820216120E+00
              0.533061667269132E-01
              0.127820852682893E+01
             -0.124868275308698E+01
              0.602140740681799E+00
              0.122480117562172E+00
             -0.112800018131270E+01
             -0.654734974140453E+00
              0.415173686439559E+00
              0.665458303037290E-01
              0.363667301456657E+00
              0.281738197282148E+00
             -0.493798135370035E+00
             -0.716143628975104E+00
             -0.107624654122402E+01
              0.106729200654173E+01
             -0.144647530221237E+01
             -0.107986691560243E+01
              0.301373026471616E+00
             -0.178803668650735E+01
              0.506716125619834E+00
              0.128285861115634E+01
             -0.247306690455015E+00
              0.421705193758636E+00
             -0.719553513399553E+00
             -0.471905665555528E+00
              0.222666351140585E+00
              0.773324060023339E+00
             -0.780688444462390E+00
              0.487800674393969E+00
             -0.305008787610537E+00
              0.156911836142466E+00
              0.403378650828245E+00
              0.199480838632065E+00
             -0.273758135497018E+00
             -0.220658755308323E-01
              0.246289974984546E+00
              0.606108050123686E+00
             -0.151216446615994E+01
             -0.280903070137519E-01
              0.111967646865703E+01
             -0.187854202850218E+01
              0.702547125274780E+00
             -0.242565678490112E+01
             -0.246666381464733E+00
             -0.302597347535555E+00
             -0.696191752808382E-01
             -0.279594608382838E+00
             -0.582389792059518E+00
             -0.227353763143819E+00
              0.248311695017891E+00
             -0.557451797420511E+00
              0.234086329793341E+00
              0.193601218277719E+01
             -0.121741363637350E+01
             -0.533159881616096E+00
              0.894719482993088E+00
              0.448084351486489E+00
              0.912402918637973E+00
              0.435471269300584E+00
              0.350419022914608E+00
             -0.308655429154458E+00
             -0.104478784127878E+01
             -0.958292809714875E+00
             -0.736131701182240E+00
              0.118298331058595E+00
             -0.904143760677194E+00
             -0.255724063027293E+00
              0.129004659911683E+00
              0.518785629413685E+00
             -0.143846557985491E+00
              0.126113307864290E+01
             -0.139504294634262E+01
             -0.263625929474580E-01
             -0.153323625895191E+00
              0.667385920119654E+00
             -0.903118692381399E+00
             -0.588595674517088E+00
              0.277440668551003E+00
              0.959399596264645E+00
              0.161243435274289E+01
              0.639074816705516E+00
              0.981492371220611E+00
             -0.527323132241071E+00
              0.135351151409752E+01
              0.134808471588210E+01
             -0.192857757891822E-01
              0.646759302729873E+00
              0.797186961873412E+00
             -0.437887636812655E+00
              0.304809857149726E+00
              0.139821474238770E+01
             -0.456324008636139E+00
             -0.132394024930168E+00
             -0.132295972142133E+01
              0.468588896712249E+00
             -0.326285511302282E+00
              0.457074451492350E+00
              0.309141021106059E-01
             -0.836018119792446E+00
              0.968645776293282E+00
              0.834454010680224E+00
             -0.671286200032077E+00
              0.365317130472661E+00
             -0.128092245309742E+01
             -0.115842572998261E+01
              0.528228405880551E+00
             -0.145027805503292E+01
             -0.729648495519504E+00
              0.183375812815854E-01
              0.183038811710413E+01
             -0.481983833994621E+00
             -0.242098439780589E+00
             -0.433866002945186E+00
              0.238828700899101E+01
              0.385070807617012E+00
             -0.909394867961214E+00
              0.151434737721143E+01
              0.132894865354078E+01
              0.691626428396994E+00
              0.169694396314796E+01
              0.186276460286084E+01
             -0.713447152841045E-01
             -0.611756948766655E+00
             -0.531382632297424E+00
              0.591542190975363E+00
              0.833061911233975E+00
             -0.156935036878934E+00
             -0.513490664504833E+00
             -0.122651683358937E+01
             -0.435247926794430E+00
             -0.989762060736622E+00
              0.719243951712448E+00
              0.380497279392010E+00
              0.128709323420552E+01
              0.293647910097659E+00
             -0.490192649369746E+00
             -0.182927362975511E+00
              0.846154290776815E+00
              0.224567641127713E+00
              0.131053430338117E+01
              0.118062552836869E+01
             -0.175852996905865E+00
             -0.195726980551379E+00
             -0.217654759661164E+01
              0.105213956107428E+01
             -0.819540954684150E-02
              0.124107460009010E+01
             -0.545762890288639E+00
             -0.140433760700615E+01
              0.406773683822227E+00
              0.154524341336779E+01
             -0.533495734238056E+00
              0.140176171622789E+01
             -0.152767303002219E+01
             -0.555854655924596E+00
             -0.183125141754069E+01
              0.336821186905074E+00
              0.104736597619691E+00
              0.179112186541512E+00
             -0.132188949117841E+01
              0.198449758327996E+01
              0.114545630504583E+01
              0.129592066638649E+00
             -0.116733115445473E+01
              0.440570050013162E+00
             -0.390834822346295E+00
             -0.317086039561850E+00
             -0.582764765651330E+00
              0.354764832601551E+00
             -0.368535480547371E+00
             -0.385889512903034E+00
              0.500629335154560E+00
              0.498760994453515E+00
             -0.191112351919072E+01
              0.424615919504513E+00
              0.140803417338349E+01
              0.902868373522822E+00
             -0.279097522026440E+00
             -0.457478152153137E-01
             -0.783282149978211E+00
              0.118129760583932E+01
              0.189415208327634E+00
             -0.650934600880033E-01
             -0.132146802101110E+00
              0.230274970539599E+01
             -0.155933201096162E+00
              0.463496568650223E+00
              0.159184652718382E+01
              0.204306741420462E+01
              0.126243102552207E+01
              0.827812902536083E+00
             -0.137044136454507E+01
             -0.985099216313548E+00
              0.770815221441349E+00
              0.116233625763171E+00
              0.653386198509833E+00
              0.272258541566980E+00
              0.138854401398811E+01
             -0.169128050025601E+01
             -0.103735414840493E+01
             -0.242178484546247E+00
             -0.185117393099239E+01
              0.413026660470254E+00
              0.987417683304914E+00
              0.179381080030900E-01
             -0.437193336303068E+00
              0.445196266943563E+00
              0.287091086216929E+01
              0.673141446413991E+00
              0.369776037553573E+00
             -0.997213465533675E+00
             -0.123294913058912E+01
             -0.289608271750158E+00
              0.612869889776198E+00
             -0.122028653314008E+00
              0.566838377659149E+00
              0.760179769882200E+00
             -0.129132799133756E+01
              0.570650419829223E+00
              0.713604388474035E+00
              0.118461949651445E+01
             -0.213571390314615E+00
              0.114871811912566E+00
             -0.146392591717520E+00
             -0.938533511730934E+00
             -0.155736969573509E+01
              0.160203045750755E+01
             -0.214543719044917E+00
             -0.112332783724423E+01
              0.184851660921872E+00
             -0.644735360295712E+00
              0.181710421059008E+01
             -0.491911540449941E+00
             -0.811125172630860E+00
              0.798393664604671E+00
             -0.336212496706215E+00
              0.982763731222753E+00
              0.684246450907988E-01
              0.195979214459072E+01
              0.112514480679942E+01
              0.271554130252005E+00
             -0.839474302967503E+00
              0.605586212698722E+00
             -0.114988379458233E+01
             -0.992063914550743E-01
              0.136803752332756E+01
             -0.544361249318240E+00
             -0.916318151132167E+00
             -0.492986467167541E+00
              0.109269356230923E+01
              0.238403958426282E+00
             -0.171728026661463E+01
              0.720945031215402E+00
              0.128833132291909E+00
              0.236507405425341E+00
             -0.103690703103705E+01
              0.202468569037727E+00
              0.727822885743357E+00
              0.960201459327080E+00
              0.140000300838628E+01
              0.746694163598589E+00
              0.155949383641001E+00
             -0.118168320198424E+01
             -0.897114854814378E+00
             -0.135852331190994E+01
             -0.316899021982801E+00
              0.729811871310806E+00
              0.657945171820917E-02
              0.110990011030076E+01
             -0.682641678401490E+00
              0.365889345378626E+00
             -0.498381639223184E+00
             -0.572406406208633E+00
              0.124930599087709E+01
              0.112158852743292E+00
              0.133456912763807E+01
              0.111119464069201E+00
              0.415358651205484E+00
             -0.343494893430469E+00
              0.126707632362551E+01
             -0.355810064648839E+00
              0.556071124708449E-02
             -0.166126182770171E+01
             -0.149217686604153E+00
              0.146880502685111E+01
              0.135341207581796E+01
              0.545918571445107E+00
             -0.331605128217071E+00
              0.124231722444028E+00
             -0.511218161483165E+00
             -0.421117461315331E+00
              0.191529830513688E+01
              0.169661921911601E+00
             -0.617385705987424E+00
             -0.225139157872233E+01
             -0.892178401736507E+00
             -0.807753414407874E+00
             -0.128448461202412E+01
             -0.126934454985856E+01
             -0.148902159094861E+01
             -0.956590142461648E+00
             -0.592563991814803E+00
             -0.101653775803382E+01
              0.936639408266932E+00
             -0.368224979064941E+00
             -0.175877146110657E+01
              0.877024620528317E+00
             -0.718668836667213E+00
             -0.168031805009730E+01
              0.213009318562431E+01
             -0.544562680966349E+00
              0.316813310514521E+00
              0.794661582266663E+00
              0.295346782138822E+00
              0.566749726917626E+00
              0.209873477380391E-01
              0.297129816561440E-01
             -0.282916803954710E+00
             -0.156831682394810E+01
              0.226497989894874E+00
             -0.253543436725917E+01
              0.154785109089420E+01
             -0.859536313382645E+00
             -0.410425276866537E+00
             -0.447349693020588E+00
              0.475036082890809E+00
             -0.340626155546485E+00
              0.589436202668671E+00
             -0.124449162458667E+01
              0.758819173542207E+00
              0.915562228637280E+00
              0.177830327094505E+00
              0.201655041906681E+00
              0.456498387788542E+00
              0.218597554656524E+00
              0.625396974295667E+00
             -0.799683064323280E-01
             -0.159851558071266E+01
              0.198764199053742E+00
             -0.726028297842954E+00
             -0.606485627363131E-01
              0.120294101261544E+01
             -0.169074613623767E+01
              0.521622517252140E-01
              0.804810228048805E-01
              0.204690546027929E+00
              0.645015365354519E+00
             -0.267847078430251E+00
              0.178736172600178E+01
              0.754860083730049E+00
             -0.296545401506885E+00
             -0.170226855918645E+00
              0.133674807917159E+00
              0.165885371116540E+01
             -0.104289006499683E+01
             -0.214059968703964E+01
              0.621743348931569E+00
             -0.190036761049591E+00
             -0.336152931988672E+00
              0.411011244800770E+00
              0.159272917842240E+01
              0.877108490047712E+00
             -0.358771719303874E+00
             -0.115866862369394E+01
             -0.276783522308031E+00
              0.583161663872786E+00
             -0.381688250143390E+00
             -0.162586627865647E+01
             -0.213017055713143E+00
             -0.208504827327692E+01
             -0.110218979869044E+01
              0.186951626330346E+01
             -0.111431347156450E+01
             -0.152148820579700E+01
             -0.112491611113339E+01
             -0.858004505602702E+00
              0.728547346724808E+00
              0.181082348216322E+01
             -0.222568584396318E+00
              0.568639232751400E+00
             -0.439446229556256E+00
             -0.145478970430081E+01
              0.110289928960803E+01
             -0.103681094843296E+01
              0.521621546746829E+00
              0.596504200121517E+00
             -0.336734034849809E+00
              0.765171683684748E+00
              0.807923615799798E+00
              0.258311530761418E+01
             -0.205660602547399E+00
             -0.123093133309174E+01
             -0.141607285674217E+01
             -0.416566068519875E+00
             -0.899383587241032E+00
              0.197104576586082E+01
             -0.965390682258510E+00
              0.216144667134706E+00
              0.442028809268296E-01
             -0.412345038939001E+00
             -0.184311437498757E+01
             -0.139519082630657E+00
              0.214111816159996E+01
              0.473977308707902E+00
              0.151316287659636E+00
             -0.127229170282545E+01
             -0.116451668928663E+01
             -0.389265611045307E+00
              0.973240766231818E+00
             -0.568180158254337E+00
              0.214297790033639E+01
             -0.102518071288063E+01
              0.406515022655081E+00
             -0.274551646582069E+00
             -0.132126310535501E+01
              0.148491280814580E+00
             -0.120923767897147E+01
             -0.157744279035316E+01
              0.242441438411106E+00
              0.337399145667154E-01
              0.104575760810007E+01
              0.576183454354839E+00
             -0.754252094698509E+00
              0.457546526692919E+00
             -0.190178896026729E+01
             -0.100211648304281E+01
              0.198026079478637E+01
              0.630733356155280E-01
             -0.105967605337430E+00
             -0.520245342507274E+00
             -0.978135173462391E-02
             -0.264160085056279E+00
              0.196966118006933E+01
              0.882781834326867E+00
             -0.173088363093742E+00
              0.141095512487670E-01
             -0.802812604127462E+00
             -0.252348551315269E+00
             -0.131505111084214E+01
              0.110605166227636E+01
              0.140804398664434E+00
              0.162036129764997E+00
              0.412755777240097E+00
             -0.299151412604455E+00
             -0.487945967890404E+00
              0.207836040063927E+00
             -0.238168147765405E+01
             -0.229508884155219E+00
             -0.214168489939001E+00
             -0.131651879357711E+00
              0.102492362135559E+01
              0.138728344626201E+01
              0.386244874952574E+00
             -0.198596659921472E+01
              0.136420024389478E+01
             -0.513406848679591E+00
             -0.791430494739911E+00
             -0.186196778583350E+01
             -0.569524915887018E+00
              0.135999478318456E+01
              0.717468025450046E+00
              0.345664218744526E+00
              0.749470726441539E+00
             -0.118702247431425E+01
             -0.104727153563949E+01
              0.133921532308362E+01
              0.887123655765512E+00
              0.998612666511919E+00
              0.209674625468870E+00
              0.233443435724430E+00
              0.112867440020935E+01
              0.210005606771913E+01
             -0.379221299743427E+00
              0.862503288130824E+00
             -0.644643291525096E+00
             -0.927664294514712E+00
             -0.744112549845835E+00
             -0.724994650201382E+00
             -0.302425236226409E+00
             -0.101784458070682E+01
             -0.396232650627449E+00
             -0.275372769082502E+01
              0.669317924564680E+00
              0.614431104280379E+00
             -0.737536886640395E-01
             -0.783941822848693E+00
             -0.379858557757207E+00
             -0.121397112926535E+01
              0.119219103281838E+00
              0.168721873420063E+01
             -0.399720356456577E+00
             -0.409981248913586E+00
              0.419370402382743E+00
             -0.108962945093466E+01
              0.182372686238530E+01
              0.324873556593105E+00
              0.127232031733197E+00
              0.110740444457255E+01
             -0.140667956787410E+00
              0.125755771319469E+01
              0.434379207852248E+00
             -0.349526714274209E-01
              0.293862986690031E+00
             -0.221196865059410E+00
              0.142640522976086E+01
              0.152602344817158E+00
              0.460878546605776E+00
             -0.196786157810351E+00
              0.219358276220669E+00
             -0.200233876291495E+01
             -0.739448954891841E+00
             -0.106272893654597E+01
              0.105948155337578E+01
             -0.762200346282772E+00
             -0.117477488429017E+01
              0.127507015742099E+01
             -0.287027260682810E+00
              0.885691858903251E+00
             -0.188904565254978E+01
              0.370618179184212E+00
              0.789818393112602E-01
              0.158499075734746E+00
             -0.295967911700816E+00
             -0.144011605919133E+00
              0.105825030010317E+01
              0.526173443421358E-01
             -0.114373151190687E+01
             -0.470981776766950E+00
              0.385085036142871E+00
             -0.246138386825326E+01
             -0.185048635814664E+01
              0.152071553260908E-01
              0.356842336845565E+00
             -0.110366330779655E+01
              0.316577390434469E-01
              0.219332686447214E+01
              0.606726727602286E+00
             -0.115500071059243E+01
              0.162092276657416E+00
             -0.225311393308291E+00
              0.283309167648160E+00
             -0.778516960074515E+00
              0.502339118532147E+00
              0.502454022925333E+00
             -0.185216381646843E+00
              0.240747866859010E+01
             -0.793713573306705E-01
             -0.648027737453340E+00
              0.665384239898302E+00
              0.914907656610323E+00
             -0.674864108272157E+00
             -0.206004119134777E-01
              0.210015966076575E+01
             -0.184180175764581E-01
              0.111767526853239E+01
              0.351461985047662E+00
             -0.140369357112276E+00
             -0.331864815215264E+00
              0.101059985287035E+01
             -0.126110373314639E+01
             -0.332562928862279E-01
             -0.432572990928733E+00
             -0.851941266762949E+00
              0.245852299704873E+00
              0.544329737393037E+00
             -0.373749410837050E-01
             -0.353865890651370E-01
             -0.900643620461442E+00
              0.317476592041893E+00
             -0.313980132096856E-01
             -0.460057022744309E+00
             -0.424381206318146E+00
              0.343674248363317E+00
             -0.418249423937489E-02
             -0.828139251694037E+00
             -0.229724191846854E+01
              0.150272985343926E+00
              0.304928048103283E+00
             -0.103829855059218E+01
             -0.546270787837514E+00
              0.176051848008129E+01
              0.286331197901831E+00
              0.955467753072092E+00
              0.243629227774846E+00
              0.852405589055135E+00
              0.446464362321990E-01
             -0.847779171550358E+00
             -0.274704992812291E+00
              0.115220202264688E+00
              0.670999463363205E+00
              0.157371842769331E+01
              0.105276021213620E+01
              0.636016747713768E-01
              0.248696976977732E+00
              0.130240132750769E+01
              0.605885828547963E+00
             -0.147514846146781E+01
             -0.586230513128525E+00
              0.226431851342072E+00
              0.217229724689541E+00
              0.543415269971917E+00
             -0.108666031941663E+01
              0.907566799285404E-01
              0.894054868556351E+00
              0.103738896835529E+01
             -0.902503058107595E+00
              0.711133930731194E-01
             -0.577518006306841E-01
             -0.447409672480769E+00
             -0.534015242921091E+00
             -0.245216257485374E+00
             -0.288289329769989E+00
              0.244358342615103E+00
              0.899009408691737E+00
             -0.699041997354514E+00
              0.173869164056913E+01
              0.711653925402310E+00
              0.565538032535295E+00
              0.804746778290912E+00
              0.514134086200513E+00
              0.772423362779764E+00
              0.118499003474281E+01
             -0.100914637058192E+01
              0.134455141433495E+01
             -0.243921705111853E+01
              0.666473915259327E+00
             -0.223714203296430E+01
              0.171971703445177E+01
              0.167075826880793E+01
             -0.176781124753983E+00
             -0.990364636141627E+00
             -0.926193116739386E+00
             -0.114474267817135E+01
             -0.141338486046488E+01
              0.116965125518166E+01
              0.915768218081036E+00
              0.520806147604871E+00
              0.536280493734287E+00
              0.977473942032581E+00
             -0.878032964598178E+00
             -0.305943511618497E+00
              0.114427802047677E+01
             -0.263921336698238E+00
              0.106924781421107E+01
              0.166744927603580E+01
             -0.887229571179394E-01
             -0.162079697593006E+01
              0.134397661152704E+00
              0.294931741518035E-01
             -0.222467484948014E+00
              0.606977214172764E-01
             -0.137447606184635E+01
             -0.163383369333024E+00
              0.301737279600438E+00
              0.317484258046445E+00
              0.107699327549772E+01
             -0.906995175147271E+00
              0.107948435593525E+01
             -0.821542268744537E+00
              0.592712245816600E+00
              0.932487085663499E+00
 
 BEEF-vdW xc energy contributions
           1 :   -14.9399469633325     
           2 :    12.2920792574534     
           3 :   -8.47087315994324     
           4 :    4.87158367140115     
           5 :   -2.17510630991704     
           6 :   0.539020661430254     
           7 :   0.176781854962005     
           8 :  -0.295334951653974     
           9 :   0.186036213902426     
          10 :  -0.135031302336849     
          11 :   0.245403857194841     
          12 :  -0.447752011937158     
          13 :   0.599977144489962     
          14 :  -0.601951388541796     
          15 :   0.440537498601927     
          16 :  -0.185774168066580     
          17 :  -5.174950912481435E-002
          18 :   0.178786582314473     
          19 :  -0.170117352605242     
          20 :   7.142056320276780E-002
          21 :   3.643367933363706E-002
          22 :  -8.916951630996195E-002
          23 :   6.983560002865374E-002
          24 :  -1.251977254713665E-002
          25 :  -2.800175946482852E-002
          26 :   1.533170607998002E-002
          27 :   4.812129142546340E-002
          28 :  -0.129585291261169     
          29 :   0.186874496067126     
          30 :  -0.194198445704540     
          31 :   -2.06165531981240     
          32 :   -1.30246712261156     

     Writing output data file ./pwscf.save/
 
     init_run     :     68.49s CPU     71.25s WALL (       1 calls)
     electrons    :    632.85s CPU    686.32s WALL (       1 calls)
     forces       :     28.99s CPU     31.46s WALL (       1 calls)

     Called by init_run:
     wfcinit      :      2.50s CPU      2.59s WALL (       1 calls)
     potinit      :     56.63s CPU     58.69s WALL (       1 calls)
     hinit0       :      7.66s CPU      7.79s WALL (       1 calls)

     Called by electrons:
     c_bands      :    120.39s CPU    121.71s WALL (      17 calls)
     sum_band     :     48.61s CPU     55.77s WALL (      17 calls)
     v_of_rho     :    362.75s CPU    396.51s WALL (      18 calls)
     newd         :     17.69s CPU     24.92s WALL (      18 calls)
     PAW_pot      :      2.30s CPU      2.30s WALL (      18 calls)
     mix_rho      :    131.65s CPU    137.90s WALL (      17 calls)
     vdW_kernel   :     33.46s CPU     33.46s WALL (       1 calls)

     Called by c_bands:
     init_us_2    :      1.76s CPU      1.81s WALL (      35 calls)
     regterg      :    116.45s CPU    117.76s WALL (      17 calls)

     Called by *egterg:
     rdiaghg      :      0.03s CPU      0.03s WALL (     139 calls)
     h_psi        :    102.82s CPU    102.84s WALL (     140 calls)
     s_psi        :      3.37s CPU      3.37s WALL (     140 calls)
     g_psi        :      0.38s CPU      0.38s WALL (     122 calls)

     Called by h_psi:
     h_psi:calbec :      2.72s CPU      2.73s WALL (     140 calls)
     vloc_psi     :     96.05s CPU     96.05s WALL (     140 calls)
     add_vuspsi   :      3.45s CPU      3.45s WALL (     140 calls)

     General routines
     calbec       :      3.33s CPU      3.33s WALL (     161 calls)
     fft          :    290.07s CPU    290.11s WALL (    2991 calls)
     ffts         :     55.31s CPU     55.32s WALL (     575 calls)
     fftw         :     91.22s CPU     91.22s WALL (     957 calls)
 
     Parallel routines
 
     PWSCF        :  21m31.43s CPU  23m32.32s WALL

 
   This run was terminated on:  15:48:55  23Jan2023            

=------------------------------------------------------------------------------=
   JOB DONE.
=------------------------------------------------------------------------------=
