
     Program PWSCF v.6.7MaX starts on 20May2022 at 11:53:11 

     This program is part of the open-source Quantum ESPRESSO suite
     for quantum simulation of materials; please cite
         "P. Giannozzi et al., J. Phys.:Condens. Matter 21 395502 (2009);
         "P. Giannozzi et al., J. Phys.:Condens. Matter 29 465901 (2017);
          URL http://www.quantum-espresso.org", 
     in publications or presentations arising from this work. More details at
     http://www.quantum-espresso.org/quote

     Parallel version (MPI), running on     1 processors

     MPI processes distributed on     1 nodes
     Reading input from chchch3-ensemble.in
Warning: card &CELL ignored
Warning: card / ignored

     Current dimensions of program PWSCF are:
     Max number of different atomic species (ntypx) = 10
     Max number of k-points (npk) =  40000
     Max angular momentum in pseudopotentials (lmaxx) =  3
     file C.pbe-n-kjpaw_psl.1.0.0.UPF: wavefunction(s)  2S 2P renormalized
     file H.pbe-kjpaw_psl.1.0.0.UPF: wavefunction(s)  1S renormalized

     **************************************************************************
     Initializing libbeef V0.1.2 with the BEEF-vdW functional.
     Citation: Wellendorff et al., PRB 85, 235149 (2012).
     **************************************************************************


     IMPORTANT: XC functional enforced from input :
     Exchange-correlation= BEEF-VDW
                           (   1   4  43  14   2   0   0)
     Any further DFT definition will be discarded
     Please, verify this is what you really want


     Subspace diagonalization in iterative solution of the eigenvalue problem:
     a serial algorithm will be used

 
     G-vector sticks info
     --------------------
     sticks:   dense  smooth     PW     G-vecs:    dense   smooth      PW
     Sum       38083   38083   9773              5377069  5377069  699955
 


     bravais-lattice index     =            0
     lattice parameter (alat)  =      47.5102  a.u.
     unit-cell volume          =   85642.6839 (a.u.)^3
     number of atoms/cell      =            8
     number of atomic types    =            2
     number of electrons       =        17.00
     number of Kohn-Sham states=           13
     kinetic-energy cutoff     =      60.0000  Ry
     charge density cutoff     =     240.0000  Ry
     scf convergence threshold =      1.0E-06
     mixing beta               =       0.7000
     number of iterations used =            8  local-TF  mixing
     Exchange-correlation= BEEF-VDW
                           (   1   4  43  14   2   0   0)

     celldm(1)=  47.510227  celldm(2)=   0.000000  celldm(3)=   0.000000
     celldm(4)=   0.000000  celldm(5)=   0.000000  celldm(6)=   0.000000

     crystal axes: (cart. coord. in units of alat)
               a(1) = (   1.000000   0.000000   0.000000 )  
               a(2) = (   0.510076   0.883477   0.000000 )  
               a(3) = (   0.000000   0.000000   0.903928 )  

     reciprocal axes: (cart. coord. in units 2 pi/alat)
               b(1) = (  1.000000 -0.577350  0.000000 )  
               b(2) = (  0.000000  1.131891  0.000000 )  
               b(3) = (  0.000000  0.000000  1.106283 )  


     PseudoPot. # 1 for C  read from file:
     /users/bkreitz1/quantum-espresso/potentials/C.pbe-n-kjpaw_psl.1.0.0.UPF
     MD5 check sum: a169b0ebad56f5ec0d79c4633f80bf22
     Pseudo is Projector augmented-wave + core cor, Zval =  4.0
     Generated using 'atomic' code by A. Dal Corso  v.6.7MaX
     Shape of augmentation charge: PSQ
     Using radial grid of 1073 points,  4 beta functions with: 
                l(1) =   0
                l(2) =   0
                l(3) =   1
                l(4) =   1
     Q(r) pseudized with 0 coefficients 


     PseudoPot. # 2 for H  read from file:
     /users/bkreitz1/quantum-espresso/potentials/H.pbe-kjpaw_psl.1.0.0.UPF
     MD5 check sum: ae98473e6dc62675f0d0baffdab24f65
     Pseudo is Projector augmented-wave, Zval =  1.0
     Generated using 'atomic' code by A. Dal Corso  v.6.7MaX
     Shape of augmentation charge: PSQ
     Using radial grid of  929 points,  2 beta functions with: 
                l(1) =   0
                l(2) =   0
     Q(r) pseudized with 0 coefficients 


     atomic species   valence    mass     pseudopotential
        C              4.00    12.01100     C ( 1.00)
        H              1.00     1.00800     H ( 1.00)

     No symmetry found



   Cartesian axes

     site n.     atom                  positions (alat units)
         1           C   tau(   1) = (   0.7900089   0.4616828   0.4002779  )
         2           C   tau(   2) = (   0.7572271   0.4358202   0.4308622  )
         3           C   tau(   3) = (   0.7571355   0.4362742   0.4915376  )
         4           H   tau(   4) = (   0.8238003   0.4880734   0.4020496  )
         5           H   tau(   5) = (   0.7263658   0.4108185   0.4131515  )
         6           H   tau(   6) = (   0.7883026   0.4618956   0.5073103  )
         7           H   tau(   7) = (   0.7186721   0.4503493   0.5061742  )
         8           H   tau(   8) = (   0.7632277   0.3959238   0.5070035  )

     number of k points=     8  Marzari-Vanderbilt smearing, width (Ry)=  0.0200
                       cart. coord. in units 2pi/alat
        k(    1) = (   0.0000000   0.0000000   0.0000000), wk =   0.2500000
        k(    2) = (   0.0000000   0.0000000  -0.5531417), wk =   0.2500000
        k(    3) = (   0.0000000  -0.5659456   0.0000000), wk =   0.2500000
        k(    4) = (   0.0000000  -0.5659456  -0.5531417), wk =   0.2500000
        k(    5) = (  -0.5000000   0.2886751   0.0000000), wk =   0.2500000
        k(    6) = (  -0.5000000   0.2886751  -0.5531417), wk =   0.2500000
        k(    7) = (  -0.5000000  -0.2772704   0.0000000), wk =   0.2500000
        k(    8) = (  -0.5000000  -0.2772704  -0.5531417), wk =   0.2500000

     Dense  grid:  5377069 G-vectors     FFT dimensions: ( 240, 240, 216)

     Estimated max dynamical RAM per process >       9.22 GB

     Initial potential from superposition of free atoms

     starting charge   16.99983, renormalised to   17.00000

     negative rho (up, down):  9.612E-03 0.000E+00


     %%%%%%%%%%%%%%%%%%%%%%%%%%%%%%%%%%%%%%%%%%%%%%%%%%%%%%%%%%%%%%%%%%%%%%%%
     %                                                                      %
     % You are using vdW-DF, which was implemented by the Thonhauser group. %
     % Please cite the following two papers that made this development      %
     % possible and the two reviews that describe the various versions:     %
     %                                                                      %
     %   T. Thonhauser et al., PRL 115, 136402 (2015).                      %
     %   T. Thonhauser et al., PRB 76, 125112 (2007).                       %
     %   K. Berland et al., Rep. Prog. Phys. 78, 066501 (2015).             %
     %   D.C. Langreth et al., J. Phys.: Condens. Matter 21, 084203 (2009). %
     %                                                                      %
     %                                                                      %
     % If you are calculating the stress with vdW-DF, please also cite:     %
     %                                                                      %
     %   R. Sabatini et al., J. Phys.: Condens. Matter 24, 424209 (2012).   %
     %                                                                      %
     %%%%%%%%%%%%%%%%%%%%%%%%%%%%%%%%%%%%%%%%%%%%%%%%%%%%%%%%%%%%%%%%%%%%%%%%


     Starting wfcs are   17 randomized atomic wfcs
     Checking if some PAW data can be deallocated... 

     total cpu time spent up to now is      153.5 secs

     Self-consistent Calculation

     iteration #  1     ecut=    60.00 Ry     beta= 0.70
     Davidson diagonalization with overlap
     ethr =  1.00E-02,  avg # of iterations =  5.0

     negative rho (up, down):  1.646E-03 0.000E+00

     total cpu time spent up to now is     1407.9 secs

     total energy              =     -62.96461642 Ry
     estimated scf accuracy    <       0.95235781 Ry

     iteration #  2     ecut=    60.00 Ry     beta= 0.70
     Davidson diagonalization with overlap
     ethr =  5.60E-03,  avg # of iterations =  2.0

     negative rho (up, down):  3.556E-04 0.000E+00

     total cpu time spent up to now is     2354.6 secs

     total energy              =     -62.82846726 Ry
     estimated scf accuracy    <       0.31055841 Ry

     iteration #  3     ecut=    60.00 Ry     beta= 0.70
     Davidson diagonalization with overlap
     ethr =  1.83E-03,  avg # of iterations =  4.0

     negative rho (up, down):  1.172E-04 0.000E+00

     total cpu time spent up to now is     3306.3 secs

     total energy              =     -62.87097748 Ry
     estimated scf accuracy    <       0.04133073 Ry

     iteration #  4     ecut=    60.00 Ry     beta= 0.70
     Davidson diagonalization with overlap
     ethr =  2.43E-04,  avg # of iterations =  5.0

     negative rho (up, down):  8.901E-03 0.000E+00

     total cpu time spent up to now is     3793.5 secs

     total energy              =     -62.86414675 Ry
     estimated scf accuracy    <       0.02393333 Ry

     iteration #  5     ecut=    60.00 Ry     beta= 0.70
     Davidson diagonalization with overlap
     ethr =  1.41E-04,  avg # of iterations =  6.0

     negative rho (up, down):  3.910E-02 0.000E+00

     total cpu time spent up to now is     4282.8 secs

     total energy              =     -62.86223824 Ry
     estimated scf accuracy    <       0.01170551 Ry

     iteration #  6     ecut=    60.00 Ry     beta= 0.70
     Davidson diagonalization with overlap
     ethr =  6.89E-05,  avg # of iterations =  4.0

     negative rho (up, down):  1.379E-01 0.000E+00

     total cpu time spent up to now is     4772.8 secs

     total energy              =     -62.86350181 Ry
     estimated scf accuracy    <       0.00499532 Ry

     iteration #  7     ecut=    60.00 Ry     beta= 0.70
     Davidson diagonalization with overlap
     ethr =  2.94E-05,  avg # of iterations =  6.0

     negative rho (up, down):  7.497E-02 0.000E+00

     total cpu time spent up to now is     5459.4 secs

     total energy              =     -62.86093779 Ry
     estimated scf accuracy    <       0.00233548 Ry

     iteration #  8     ecut=    60.00 Ry     beta= 0.70
     Davidson diagonalization with overlap
     ethr =  1.37E-05,  avg # of iterations =  8.2

     negative rho (up, down):  5.026E-02 0.000E+00

     total cpu time spent up to now is     6854.8 secs

     total energy              =     -62.86083349 Ry
     estimated scf accuracy    <       0.00071645 Ry

     iteration #  9     ecut=    60.00 Ry     beta= 0.70
     Davidson diagonalization with overlap
     ethr =  4.21E-06,  avg # of iterations =  8.4

     negative rho (up, down):  2.587E-02 0.000E+00

     total cpu time spent up to now is     7852.0 secs

     total energy              =     -62.86067225 Ry
     estimated scf accuracy    <       0.00030184 Ry

     iteration # 10     ecut=    60.00 Ry     beta= 0.70
     Davidson diagonalization with overlap
     c_bands:  1 eigenvalues not converged
     ethr =  1.78E-06,  avg # of iterations =  9.5

     negative rho (up, down):  2.236E-02 0.000E+00

     total cpu time spent up to now is     9136.9 secs

     total energy              =     -62.86074738 Ry
     estimated scf accuracy    <       0.00003258 Ry

     iteration # 11     ecut=    60.00 Ry     beta= 0.70
     Davidson diagonalization with overlap
     ethr =  1.92E-07,  avg # of iterations =  2.0

     negative rho (up, down):  1.758E-02 0.000E+00

     total cpu time spent up to now is     9625.0 secs

     total energy              =     -62.86077288 Ry
     estimated scf accuracy    <       0.00000916 Ry

     iteration # 12     ecut=    60.00 Ry     beta= 0.70
     Davidson diagonalization with overlap
     ethr =  5.39E-08,  avg # of iterations =  2.0

     negative rho (up, down):  1.716E-02 0.000E+00

     total cpu time spent up to now is    10255.3 secs

     total energy              =     -62.86077324 Ry
     estimated scf accuracy    <       0.00000106 Ry

     iteration # 13     ecut=    60.00 Ry     beta= 0.70
     Davidson diagonalization with overlap
     ethr =  6.26E-09,  avg # of iterations =  2.0

     negative rho (up, down):  1.717E-02 0.000E+00

     total cpu time spent up to now is    10431.0 secs

     End of self-consistent calculation

          k = 0.0000 0.0000 0.0000 (672145 PWs)   bands (ev):

   -19.9529 -17.2380 -13.9833 -11.4146 -10.5869 -10.5810  -9.4564  -6.7528
    -4.5580  -0.9201  -0.9010  -0.4728  -0.3497

          k = 0.0000 0.0000-0.5531 (672198 PWs)   bands (ev):

   -19.9529 -17.2380 -13.9833 -11.4146 -10.5869 -10.5810  -9.4564  -6.7528
    -4.5580  -0.9190  -0.9010  -0.4708  -0.3911

          k = 0.0000-0.5659 0.0000 (672026 PWs)   bands (ev):

   -19.9529 -17.2380 -13.9833 -11.4146 -10.5869 -10.5810  -9.4564  -6.7528
    -4.5580  -0.9195  -0.9010  -0.4806  -0.3273

          k = 0.0000-0.5659-0.5531 (672240 PWs)   bands (ev):

   -19.9529 -17.2380 -13.9833 -11.4146 -10.5869 -10.5810  -9.4564  -6.7528
    -4.5580  -0.9184  -0.9010  -0.4767  -0.3726

          k =-0.5000 0.2887 0.0000 (672118 PWs)   bands (ev):

   -19.9529 -17.2380 -13.9833 -11.4146 -10.5869 -10.5810  -9.4564  -6.7528
    -4.5580  -0.9194  -0.9011  -0.4775  -0.3274

          k =-0.5000 0.2887-0.5531 (672084 PWs)   bands (ev):

   -19.9529 -17.2380 -13.9833 -11.4146 -10.5869 -10.5810  -9.4564  -6.7528
    -4.5580  -0.9184  -0.9010  -0.4747  -0.3717

          k =-0.5000-0.2773 0.0000 (672142 PWs)   bands (ev):

   -19.9529 -17.2380 -13.9833 -11.4146 -10.5869 -10.5810  -9.4564  -6.7528
    -4.5580  -0.9194  -0.9010  -0.4876  -0.3265

          k =-0.5000-0.2773-0.5531 (672116 PWs)   bands (ev):

   -19.9529 -17.2380 -13.9833 -11.4146 -10.5869 -10.5810  -9.4564  -6.7528
    -4.5580  -0.9184  -0.9010  -0.4825  -0.3719

     the Fermi energy is    -4.5201 ev

!    total energy              =     -62.86077363 Ry

     total all-electron energy =      -236.153043 Ry
     estimated scf accuracy    <       0.00000011 Ry
     smearing contrib. (-TS)   =      -0.00656366 Ry
     internal energy E=F+TS    =     -62.85420997 Ry

     The total energy is F=E-TS. E is the sum of the following terms:
     one-electron contribution =    -160.78254433 Ry
     hartree contribution      =      82.50511719 Ry
     xc contribution           =     -18.01632980 Ry
     ewald contribution        =      53.08271967 Ry
     one-center paw contrib.   =     -19.64317269 Ry

     convergence has been achieved in  13 iterations

     negative rho (up, down):  1.717E-02 0.000E+00

     Forces acting on atoms (cartesian axes, Ry/au):

     atom    1 type  1   force =     0.00015985   -0.00053053    0.00053280
     atom    2 type  1   force =     0.00124320   -0.00167424   -0.00080137
     atom    3 type  1   force =     0.00139421   -0.00200524    0.00403688
     atom    4 type  2   force =    -0.00038598    0.00056728   -0.00000628
     atom    5 type  2   force =    -0.00068927    0.00020655    0.00040435
     atom    6 type  2   force =    -0.00020849    0.00032999   -0.00068616
     atom    7 type  2   force =    -0.00022766   -0.00020530   -0.00030408
     atom    8 type  2   force =    -0.00128585    0.00331149   -0.00317615

     Total force =     0.007247     Total SCF correction =     0.000244

     negative rho (up, down):  1.717E-02 0.000E+00

     negative rho (up, down):  1.717E-02 0.000E+00

     negative rho (up, down):  1.717E-02 0.000E+00

     negative rho (up, down):  1.717E-02 0.000E+00

     negative rho (up, down):  1.717E-02 0.000E+00

     negative rho (up, down):  1.717E-02 0.000E+00

     negative rho (up, down):  1.717E-02 0.000E+00

     negative rho (up, down):  1.717E-02 0.000E+00

     negative rho (up, down):  1.717E-02 0.000E+00

     negative rho (up, down):  1.717E-02 0.000E+00

     negative rho (up, down):  1.717E-02 0.000E+00

     negative rho (up, down):  1.717E-02 0.000E+00

     negative rho (up, down):  1.717E-02 0.000E+00

     negative rho (up, down):  1.717E-02 0.000E+00

     negative rho (up, down):  1.717E-02 0.000E+00

     negative rho (up, down):  1.717E-02 0.000E+00

     negative rho (up, down):  1.717E-02 0.000E+00

     negative rho (up, down):  1.717E-02 0.000E+00

     negative rho (up, down):  1.717E-02 0.000E+00

     negative rho (up, down):  1.717E-02 0.000E+00

     negative rho (up, down):  1.717E-02 0.000E+00

     negative rho (up, down):  1.717E-02 0.000E+00

     negative rho (up, down):  1.717E-02 0.000E+00

     negative rho (up, down):  1.717E-02 0.000E+00

     negative rho (up, down):  1.717E-02 0.000E+00

     negative rho (up, down):  1.717E-02 0.000E+00

     negative rho (up, down):  1.717E-02 0.000E+00

     negative rho (up, down):  1.717E-02 0.000E+00

     negative rho (up, down):  1.717E-02 0.000E+00

     negative rho (up, down):  1.717E-02 0.000E+00

     negative rho (up, down):  1.717E-02 0.000E+00

     negative rho (up, down):  1.717E-02 0.000E+00

     negative rho (up, down):  1.717E-02 0.000E+00

     negative rho (up, down):  1.717E-02 0.000E+00
 BEEFens 2000 ensemble energies
             -0.137780925839015E+01
             -0.421232719481650E-01
             -0.264640949179346E+00
              0.930344655017810E+00
             -0.439545048462899E+00
             -0.310324916594128E+00
             -0.102593897032928E+01
             -0.206922587945951E+01
             -0.671431911537588E+00
             -0.734291921698551E+00
             -0.761202203420991E+00
              0.138437422014083E+00
              0.787462904522487E-01
             -0.141349605884254E+00
              0.824924066845569E-01
              0.997500323653668E+00
             -0.398948331292978E+00
             -0.155566042304851E+00
              0.531436813822356E+00
             -0.231858442714752E+01
              0.118233773408217E+01
             -0.381344826605007E+00
             -0.137402273667283E+00
             -0.174767661265741E+00
              0.945718906837900E-01
             -0.871719442614740E-01
              0.184803612207742E+01
             -0.532017011328280E+00
             -0.150486890356252E+00
             -0.120033612865009E+01
              0.138679720843395E+01
             -0.308101513122669E-01
             -0.879410111249324E+00
              0.342906732085779E+00
             -0.595246417273989E-01
              0.655630959366714E+00
              0.555309899885232E-01
             -0.420150768194052E-01
              0.853669691555191E+00
             -0.206627415933559E+01
              0.116171772499161E+01
              0.255806840508759E+00
             -0.302024469555204E+00
             -0.595279482789183E+00
              0.263519848271298E+00
             -0.394176522747784E+00
              0.109420164141916E+01
              0.726075388560458E+00
             -0.357809690480432E+00
             -0.679320679308669E+00
             -0.661430765812714E+00
             -0.801152738998268E+00
              0.521583507568191E+00
             -0.110176020420050E+01
              0.355236297670119E+00
              0.128223779722484E+01
              0.162082808744858E+01
              0.659195265310703E+00
              0.336888095580892E+00
              0.711875881604353E+00
              0.193250384915966E+01
              0.310087302640015E+00
             -0.115301020144132E+01
             -0.177326870808210E+00
             -0.639224692255457E+00
              0.130417476125212E+01
             -0.147425338882959E+01
             -0.123190108456065E+01
             -0.751655256638275E+00
             -0.457377597592890E+00
             -0.776324788368193E+00
              0.584766491255619E+00
              0.291954280986058E+00
              0.348388415459843E+00
             -0.816386380431378E+00
             -0.748815048833384E+00
             -0.125920829250025E+01
              0.631315784255841E+00
             -0.738158554387087E+00
              0.704605836804704E+00
             -0.191941740417034E+00
             -0.579364678764180E+00
             -0.101182446932460E+01
             -0.307039263066228E+00
             -0.367958999508641E+00
             -0.290088498647643E+00
              0.815458976690981E+00
              0.168319543444433E+01
             -0.972299188660320E+00
             -0.165861626710832E+01
             -0.376403337290579E+00
              0.226624338184692E+01
             -0.118291468812564E+01
              0.639704917655636E+00
             -0.253597771196088E+00
             -0.121280080022775E+01
              0.574317789985982E+00
              0.597499793499557E+00
             -0.315943965715161E+00
              0.573180835853311E+00
             -0.503933037271473E+00
             -0.133263141585771E+01
              0.217042766929404E+01
              0.947480267761911E+00
              0.398178844871697E+00
              0.258160264607457E+00
              0.513507165075710E+00
              0.169669046986631E+01
             -0.562285432828119E+00
              0.495318847972683E-01
             -0.288440108108383E+01
              0.354827275964665E+00
             -0.137782229375543E+01
              0.257965591764631E+00
              0.456718983303552E+00
             -0.795024800115366E+00
             -0.103327291900627E+01
              0.309535485157610E-01
             -0.659222750362401E+00
              0.969429797360120E+00
             -0.936371573871706E+00
             -0.209281268751896E+00
             -0.810425370033089E+00
             -0.636979413177645E-01
              0.134066549130499E+00
              0.527120975311083E+00
             -0.631328526695185E-02
             -0.117406225899636E+00
              0.143595516128059E+01
              0.193661852667279E+01
              0.105463909100982E+01
              0.130023818766778E+01
             -0.272633714413214E+00
              0.151823195555126E+00
              0.106410023695627E+01
              0.169441430242823E+00
             -0.160412013104736E+01
             -0.961620866093440E+00
             -0.102581335796471E+01
             -0.616844776345682E+00
              0.531916506598812E+00
             -0.256752146540362E+01
             -0.248323561820537E+00
              0.992500770877875E+00
             -0.852388904844617E+00
             -0.587943229087184E+00
              0.125736054857804E+01
              0.103696699047716E+01
             -0.583599432899983E+00
              0.766298135507721E+00
             -0.534568992629326E+00
              0.798351947775643E+00
              0.135564124391264E+00
              0.184370781975433E+00
             -0.170240663009453E+01
             -0.989167688831280E+00
             -0.183710697616506E+00
             -0.969437270397583E-01
             -0.910273660664730E+00
              0.235974959444933E+01
             -0.202446754784098E+00
             -0.541891239285987E+00
              0.808734216066931E+00
             -0.918031586113514E+00
             -0.818633872725931E+00
              0.690602173729660E+00
              0.269039850178725E+00
              0.220780436387503E+00
              0.371706921111077E+00
             -0.221849657776774E+00
              0.168970322475571E+00
              0.121160746750837E+01
             -0.539518082295370E+00
              0.475458665079096E+00
              0.185762958664251E+01
              0.665020480588433E+00
             -0.695820811452865E-01
             -0.451924905536362E+00
              0.327021718582794E+01
             -0.562356494774981E+00
              0.842410340368944E+00
              0.686204772261377E+00
              0.537045526196606E+00
              0.194752742892956E+01
              0.952182708543603E+00
             -0.107689135034002E+00
              0.546194207596461E+00
              0.111759541672874E+01
              0.801120070093280E+00
             -0.130705551950058E+01
              0.198726992427575E+01
             -0.181108804768832E+01
             -0.188422621823746E+00
              0.116240591278000E+01
              0.411311465524897E+00
              0.117810723287731E+00
              0.542192865885855E+00
              0.303756808680766E+00
              0.672050986169356E+00
             -0.130541364044760E+01
              0.653068933233101E-01
             -0.481448288146325E+00
             -0.970784604828596E-01
             -0.726297517073142E-01
             -0.303690712870062E+00
             -0.139542362590504E+00
              0.174231124311129E+01
             -0.879493454156850E-01
             -0.595125077254849E+00
             -0.157570917685032E-01
              0.309680618620744E+00
             -0.136634136009400E+01
             -0.122440593100714E+01
             -0.696691384944315E+00
             -0.133001189879051E+01
             -0.407818421607713E+00
             -0.843358126662444E+00
              0.369668849022982E+00
              0.617242372432332E-01
             -0.280836764036265E+00
             -0.166253227749388E+00
              0.955556405685698E-01
             -0.234644795525520E+00
              0.136947956418211E+01
             -0.187719178995447E+01
             -0.274511899827839E+00
             -0.265820358890459E+00
              0.307878046071044E+00
              0.491832176006607E+00
             -0.108779811461081E+01
             -0.234414214649222E+00
              0.944779073432136E+00
             -0.389471225771744E+00
              0.285931136110267E+00
              0.681682663208258E+00
             -0.145383190936190E-01
              0.241399665832195E+01
             -0.177816684979216E+00
             -0.722084542985437E+00
             -0.230345248308028E-01
             -0.615816937221572E+00
              0.114802989589936E+01
             -0.106987326368890E+01
              0.317041745856208E+00
              0.986764086094126E+00
             -0.262375922438558E+00
              0.247375505813119E+01
              0.267894580684717E+01
             -0.149982396603200E+01
              0.121496102146679E+01
              0.532276302593177E+00
             -0.119712790182738E+01
              0.351966065162212E+00
              0.952960556400964E+00
              0.102073457617113E+01
              0.922568077689414E-01
              0.418408078751941E+00
              0.160004706106746E+01
             -0.487527860628618E+00
              0.176987137145430E+00
              0.137417959391123E+01
             -0.743242475218326E+00
             -0.554179013781796E+00
              0.128653914012489E+01
              0.658068863314918E+00
              0.160573837251238E+01
              0.754931522160578E+00
              0.321188447912213E+00
              0.514556975454092E+00
              0.911453727952492E+00
             -0.115350919423441E+01
              0.186666500536316E+00
              0.642656639991756E+00
              0.237106173739722E+00
              0.524536559351714E+00
             -0.133032689482019E+01
              0.659038318911628E+00
             -0.899631283323146E+00
             -0.663062586155643E+00
              0.440564683219552E+00
             -0.151731697623213E+00
              0.129883666550507E+01
             -0.239483094957282E+00
              0.627473582262429E+00
              0.622709241827938E+00
              0.161130853125651E+01
              0.108592466777635E+01
              0.109059074059451E+01
              0.177861861783590E-03
             -0.267113134963092E+00
             -0.618540387039831E+00
              0.175875412302655E+01
              0.174412898365502E+01
              0.842964282294694E+00
             -0.623849019707403E+00
              0.103565239333502E+01
              0.481434503806124E-01
              0.322746380845773E+00
              0.148978448518623E+01
             -0.636309510975512E-01
             -0.213239666429677E+00
             -0.408063586799544E+00
             -0.134589965766139E+01
              0.203766158552828E+01
              0.112095578550660E+01
             -0.140154917240937E+01
             -0.484315901594090E+00
              0.509074047269790E+00
             -0.213184303096461E+00
              0.139728288893112E+01
              0.323887008528206E+00
              0.171597500717509E+01
              0.674415667410662E+00
             -0.454954235832639E+00
              0.350614103469021E+00
             -0.155077457334690E+00
             -0.492536397136479E+00
              0.354675586249042E+00
              0.313900607862159E+00
              0.192775110579620E+01
              0.159570292273545E+01
              0.122148230324424E+01
              0.138748570122728E+01
              0.152361002991428E+00
             -0.536756857911916E+00
              0.277065799055300E+00
             -0.688265107188741E+00
             -0.122510077007432E+01
             -0.117601440713376E+01
             -0.695643359383077E+00
             -0.227305090055514E+01
             -0.816629834336859E+00
             -0.183751628359574E+01
              0.449293018585704E+00
             -0.942709555980229E+00
              0.111327738807974E+01
             -0.210735820269616E+01
             -0.625033824816484E+00
              0.756877274913030E+00
              0.457158451692885E+00
             -0.194132967693973E+01
              0.108155187938569E+01
             -0.615218616590709E+00
              0.117095819852164E+01
             -0.552339872318823E+00
             -0.165425061299691E+01
              0.376323343117154E+00
             -0.139561452915107E+01
             -0.174714704672621E-01
             -0.458593071941880E-01
              0.856096147912579E+00
              0.265677458906993E+01
             -0.889771483905951E+00
             -0.794906403800959E+00
             -0.159361867837669E+00
             -0.140245361673822E+00
             -0.168785199452067E+01
             -0.118270013271962E+01
              0.103950578426889E+01
             -0.343873867897784E+00
              0.505461532956030E+00
             -0.103120355669647E+01
             -0.350212765325598E+00
             -0.875399693281532E+00
              0.100686642387281E+01
              0.231144675417305E+00
             -0.522773814661559E+00
             -0.402851730691686E+00
              0.298522103115269E+00
             -0.153440433373333E+00
              0.828993436804599E+00
             -0.555807789021106E+00
              0.277320280551859E+00
              0.722868968966239E+00
              0.237575576698729E+00
             -0.533147851582608E+00
              0.325868503936515E+01
              0.128805974182577E+01
              0.231553421684366E+00
              0.116995259239912E+00
             -0.127946939150033E+01
              0.715744384726593E+00
             -0.166527082697967E+01
             -0.748565649221574E+00
             -0.127604925176591E+01
             -0.385396891968429E+00
              0.127005835043934E+01
             -0.122933618183486E+01
              0.595841603374315E+00
             -0.102861188681848E+00
              0.181986245263128E-01
             -0.635693306728434E+00
             -0.867185617000174E+00
             -0.168369861829239E+00
             -0.646045874920044E+00
             -0.459068023907403E+00
             -0.839044446644182E+00
             -0.977287083643097E-01
             -0.662480070204306E+00
             -0.101475784812286E+01
              0.431234410006880E+00
             -0.224413052657635E+00
              0.525668853562647E+00
              0.169036400185305E+00
             -0.160679939227147E+01
             -0.105647169654488E+01
             -0.110456363381696E+01
              0.648155335519210E+00
             -0.165286348521842E+00
             -0.128085636385131E+01
              0.120833973364453E+01
             -0.901320013143992E+00
              0.126901644829533E+01
             -0.668702512437557E+00
             -0.102954312398543E+01
              0.495926399313175E+00
             -0.154268923647748E+01
             -0.642498258130383E+00
              0.121422559417658E+01
              0.437239337452764E+00
             -0.952609751244257E+00
              0.119195030514526E+01
             -0.345507976159539E+00
             -0.792195976779805E+00
             -0.623252172104854E+00
             -0.111045859280231E+01
              0.567202842123046E+00
             -0.183601710711517E+01
             -0.158582502509157E+01
             -0.170656460607059E+00
             -0.616189561829709E+00
             -0.129691065817441E+01
              0.162215473846087E+01
              0.293123117545227E+01
             -0.411843425183012E+00
             -0.903079708649228E-01
             -0.125672528062977E+01
              0.140605106495878E+01
              0.471273402305265E+00
             -0.459619211327865E+00
             -0.756633049122949E+00
              0.297138297251584E+00
             -0.125154754755957E+01
             -0.223733878402514E+00
             -0.180013104539799E+01
              0.721422374141964E+00
              0.221216592436165E+00
             -0.132485118433271E+00
             -0.275272298131879E+00
             -0.918223788008220E+00
             -0.298740540498551E+00
              0.291699993650461E+01
             -0.325302791828035E+00
             -0.104780065417454E+01
             -0.147687235323522E+01
              0.309019408323802E+00
             -0.825789023838176E+00
              0.227838993242996E+00
              0.716043392508103E+00
              0.104976574647869E+00
              0.780925648260219E+00
              0.404961217495482E+00
              0.123974986821374E+01
              0.501030592901511E+00
             -0.787097869245490E+00
              0.120372209114236E+01
              0.720884535792193E+00
              0.268407399512634E+00
              0.761334728684115E+00
             -0.697867427897152E+00
              0.150169090673917E+01
              0.581199350028079E+00
             -0.747989683962411E+00
             -0.115314656353980E+00
             -0.349112891604597E+00
              0.303532878378420E+00
             -0.526017358796119E+00
             -0.286018445918714E+00
             -0.276541768096333E+00
              0.171518738058120E+01
              0.124455284204984E+01
             -0.133107579219437E+01
             -0.187547879983775E+00
             -0.103951340294512E+01
             -0.260984918249049E+00
             -0.445277750870372E+00
              0.247087458694846E+00
             -0.649580215482866E-01
             -0.614374176731881E+00
              0.386418958498456E+00
             -0.203714458771904E+00
             -0.133322985547591E+00
              0.184870002378960E+01
              0.300348006932208E+00
             -0.178804896657276E+01
             -0.791140687389795E+00
              0.205289092030318E+01
              0.495067214585571E+00
             -0.177428974756204E+00
              0.233350578724081E+01
             -0.331829071222987E+00
             -0.152741021563498E+00
             -0.272242194180203E+00
              0.344524994652761E+00
              0.730010640716673E+00
              0.495467834013792E-01
              0.604377352231475E+00
             -0.219057739266445E+00
             -0.879708602283256E+00
             -0.832626888680830E+00
             -0.101852549843883E+01
              0.844802175519370E+00
              0.312692963239499E+00
              0.802034183065429E+00
              0.341913629914694E+00
              0.192275882146503E+01
              0.439873839178436E+00
             -0.162467232717367E+01
             -0.697195343535745E+00
              0.336461892960733E-01
             -0.589508908486145E+00
              0.135686569734833E+01
             -0.343052559427530E+00
              0.356193874837088E+00
              0.118592693172328E+01
             -0.173172668335959E+01
              0.312126059455140E+01
              0.416675695925069E+00
              0.511339270885886E+00
              0.815060117311290E+00
              0.571783430126569E-01
             -0.407312460114051E-01
              0.670190599221694E+00
             -0.748150798716362E+00
              0.185754389992998E+01
              0.162474107600530E+01
             -0.823561591623693E+00
              0.363563892676199E+00
              0.153967923860741E+01
             -0.449826230467041E+00
              0.453557494251264E+00
              0.665723960886850E+00
              0.868867708382957E+00
             -0.156419243781243E+01
             -0.103885343287482E+00
             -0.535815060460090E+00
             -0.130960976672563E+00
             -0.160682693147573E+00
              0.181660435163266E+00
             -0.250730366579706E+00
             -0.655059577635452E+00
              0.380808782382999E+00
              0.116800334153031E+00
              0.112840116056754E+01
             -0.999262174532286E+00
              0.100243797987966E+01
              0.108499395796756E+01
             -0.156685706422359E+00
              0.155130396322956E+01
             -0.142736607900542E+01
             -0.218829921270500E+01
             -0.184766199253732E+00
             -0.144358786445601E+00
             -0.960944832488586E-02
              0.166052862815157E+01
             -0.107252737340939E-01
              0.914324059262924E+00
              0.129298201276223E+01
              0.825553387207874E+00
             -0.132981528759373E+00
              0.123794617105453E+01
             -0.362330619817380E+00
             -0.843776886684676E+00
             -0.727319622755143E+00
              0.236617894925621E+00
              0.722494711712994E+00
             -0.443887002199972E-01
              0.693285327686715E+00
              0.163614185675831E-01
              0.115973987797098E+01
              0.329939946351355E+00
              0.169384876141911E+00
              0.389241119654926E-01
              0.613402857171173E+00
              0.874509150307873E+00
              0.299007204783217E+00
             -0.766690318014600E-01
             -0.115516252203999E+01
              0.644858599157114E+00
              0.444464354057224E+00
              0.682618389229405E+00
              0.635942211839060E+00
              0.777442678273728E+00
             -0.203713913408302E+00
              0.747089015342365E+00
             -0.637042811716469E+00
             -0.372315146683135E-01
             -0.110707664288413E+01
             -0.740350134926640E+00
              0.919655821118926E+00
             -0.186376665447943E+01
              0.499516514822973E+00
              0.286895410708366E+00
              0.184324984108140E+01
             -0.235753661026327E+00
              0.710651875129072E+00
             -0.242506055630976E+00
             -0.105606304299751E+01
             -0.137223172967317E+01
             -0.347997819874826E+00
             -0.194189446977923E+01
              0.154106789542590E+00
             -0.439261053271090E+00
              0.705143873571072E+00
              0.532600612153896E+00
             -0.624263833099265E+00
             -0.656250679145932E+00
              0.916035984362827E+00
             -0.121971276924224E+01
             -0.296981184179023E+00
             -0.340108475608112E+00
              0.582516146870663E+00
              0.138406824839081E+00
              0.773629491836418E-01
             -0.305950998165769E+00
              0.113422900553873E+01
             -0.130988720005225E+01
              0.137499906876576E+00
              0.128070624992741E+01
             -0.786361394751554E+00
              0.844247475432409E-01
              0.528264036108883E-01
             -0.136814836819676E+01
             -0.778457618729800E+00
             -0.225185858988167E-01
              0.673208817887096E+00
              0.746091832512903E+00
              0.998634361696453E-01
             -0.265222893815654E+00
              0.349772822085454E+00
             -0.840892904436297E+00
             -0.115355704894645E+00
             -0.112084081448545E+01
             -0.561378775171913E+00
              0.107668561798127E+01
             -0.648139299819348E+00
              0.150734900229741E+01
             -0.509427727506359E+00
              0.694777126781422E+00
              0.542874371298677E+00
             -0.127057710240622E+01
             -0.525190320532805E+00
              0.211634615239985E+00
             -0.904328445928794E+00
             -0.884023703135794E+00
             -0.190703589018869E+01
             -0.117203724783743E+01
             -0.104736476605012E+01
             -0.966124985225068E+00
              0.233775913517009E-02
              0.547098761750296E+00
              0.273389415901536E+00
              0.610315027966122E+00
             -0.124795006380304E+01
              0.283200492128577E+00
              0.629301471771967E+00
             -0.146093257990391E+01
             -0.119445609313154E+01
             -0.832870429855349E+00
             -0.726025871260609E+00
              0.294826450061540E+00
             -0.771357016215859E-01
             -0.876871386865497E+00
              0.573054231546960E+00
             -0.500634019924198E+00
              0.111180309049681E+01
             -0.187024349829582E+01
              0.137938076349673E+01
             -0.272513293945219E+00
             -0.945754345660293E+00
             -0.585501610093567E+00
             -0.279948318861836E-01
              0.105489113960951E+01
             -0.147026262822495E+01
             -0.265156302636268E+00
             -0.348911324595499E+00
              0.852703158151711E+00
              0.169858071358988E+01
             -0.214496341846906E+01
              0.194166414592490E+01
              0.797884053364798E+00
             -0.162162170064880E+01
             -0.649382088030622E+00
              0.168516892708027E+01
              0.120121582967333E+01
             -0.455537684819074E+00
             -0.158452610667396E+00
              0.404571797571813E+00
              0.167384330550965E+01
             -0.128151742423054E+01
              0.258963581895204E+00
             -0.168313210777277E+00
              0.542795605396114E+00
             -0.148724038287690E+01
             -0.380210991819198E-01
             -0.550595282951928E+00
              0.103199996531373E+01
              0.804909677888804E+00
             -0.190617359527500E+01
             -0.999859583976680E+00
             -0.430136315128118E+00
             -0.953052487658144E+00
             -0.260985957051788E+00
             -0.358934020679540E+00
              0.974094747603827E+00
              0.916442324709596E+00
             -0.167492915420313E-01
             -0.938637058484761E+00
             -0.184259499125219E+01
              0.109280439419146E+01
             -0.965999822198459E+00
             -0.814555657912907E+00
              0.162389780466598E+00
             -0.803169576217953E+00
             -0.855631780035155E+00
             -0.676507235121433E+00
             -0.111721531771165E+01
             -0.499594662024593E+00
             -0.105326969536251E+01
              0.116035590955585E+01
              0.123345747809845E+01
             -0.249218249047534E+00
             -0.433848158934595E+00
              0.815829594380801E-01
              0.902160900538227E+00
             -0.179061382084144E+01
             -0.504617076919491E+00
              0.104753912950167E+01
              0.154648729724712E+01
             -0.193391159745116E+00
              0.215361171457650E+00
              0.111973941219156E+01
              0.321664183565981E+00
              0.612172848265971E-01
             -0.826180869558105E+00
              0.293450259685311E+00
             -0.684549420983575E+00
             -0.136760844620870E+00
             -0.457436734881622E+00
             -0.291633844233298E+00
              0.530294890964264E+00
              0.168439111200122E+01
             -0.170613681276546E+00
              0.361622234624326E-01
             -0.194617434056157E+01
             -0.384112648803310E+00
             -0.751065232963907E+00
             -0.406418306652201E-01
             -0.102479038512675E+01
              0.194711264705602E+01
              0.185150149978975E+01
              0.400072557011770E+00
             -0.517074667230988E+00
              0.399960522134913E+00
              0.414004630673876E+00
             -0.982258477100699E+00
             -0.204763329942535E+00
              0.438141107512383E+00
              0.254509253119861E+00
              0.107519692312125E+01
              0.820328683647446E+00
             -0.441200415599853E+00
              0.434551996371487E+00
             -0.207557830299993E+01
             -0.289673012422724E-01
              0.191892724086109E+01
              0.407179960794064E+00
             -0.668964439161783E-01
              0.560621576811601E+00
             -0.503659066182127E+00
              0.183778301324967E+01
             -0.446670039721615E+00
              0.162905342108544E+01
              0.817033680563842E+00
             -0.957481723861962E+00
              0.710261968098311E+00
             -0.591584578499186E+00
             -0.145007271573261E+01
             -0.172004941914358E+00
             -0.114663861847338E+01
             -0.110463909631489E+01
             -0.266893939436712E-01
              0.817277932743016E+00
             -0.313916164338813E+00
             -0.636534241195926E+00
              0.156370646642966E+00
             -0.138002937108943E+01
             -0.593982471806764E-01
             -0.186101523951558E+01
              0.110414833999726E+01
             -0.858724512110389E-01
             -0.103979595373217E+01
             -0.320342693562317E+00
              0.374313860913169E+00
             -0.823316129617196E+00
             -0.932378009587692E+00
              0.194912485538106E+01
             -0.604929594750373E+00
             -0.773695919094447E+00
              0.692392497130865E+00
             -0.487815826833616E+00
              0.123544373649302E+01
             -0.560331606896121E-01
              0.445775577653889E-01
              0.235058526909424E+01
             -0.162622482838889E+00
             -0.825648401798210E+00
             -0.103557174647240E+01
             -0.108213667072762E+01
             -0.802418039335233E+00
              0.624028072568578E+00
              0.678755802503533E+00
              0.605879404338814E+00
              0.157744015907325E+01
              0.122533160979399E+00
              0.500411191494869E+00
             -0.121288361935748E+01
              0.435925842628517E-01
             -0.318118758980984E+00
             -0.584358550198802E+00
             -0.169675890954904E+00
              0.697669681726930E+00
              0.808727786302480E+00
             -0.579874838520450E-01
              0.288658594049481E+00
              0.575059275156713E+00
              0.716214321520552E+00
             -0.503414952709967E+00
             -0.197108609419391E+00
              0.554075811848076E-02
             -0.555115822055138E+00
             -0.516341787994143E-01
             -0.876003251394487E+00
              0.168979219181267E+01
              0.130951839288212E+01
             -0.400927395312982E+00
              0.364371122734052E+00
             -0.131167011180627E+00
             -0.694114165783235E+00
              0.802432194915161E+00
             -0.198519367770093E+00
              0.786766917217782E+00
             -0.100666860897946E+01
              0.378818731886157E+00
             -0.161472275864815E+00
             -0.113792620351956E+01
             -0.508983599432863E+00
              0.510227755786377E+00
             -0.209885028614152E+01
              0.820022057822477E+00
              0.988254447600896E+00
             -0.220329910756313E+00
             -0.165934758923153E+00
             -0.846231243325235E-01
              0.574323482773499E+00
             -0.728376248662763E+00
              0.652301855383292E+00
              0.690241743467848E+00
             -0.189985987650085E+01
             -0.789789869183818E+00
              0.514978757573046E+00
             -0.267540336838181E+00
              0.106425218993029E+01
             -0.132045514483952E+01
             -0.233474656927047E+00
             -0.845677731975815E+00
             -0.278573564456455E+01
              0.168253358768893E+01
             -0.126848375674713E+01
             -0.144476046989029E+01
              0.133123484690096E+00
              0.274671081693665E+01
              0.156889117664837E+00
             -0.711496803412113E+00
             -0.305814661147163E-01
             -0.740649118444812E-01
             -0.181474423304659E+01
             -0.116078186946981E+01
              0.183303893354745E+01
             -0.270468531740167E+00
             -0.761059618741392E+00
              0.102650734265944E+01
             -0.694544691520479E+00
              0.701819597015781E+00
              0.102418078010560E+01
             -0.111573065165630E+01
             -0.603002127364386E+00
             -0.680846958840005E+00
             -0.377978551255652E+00
             -0.411170100679172E+00
             -0.411360304730779E+00
              0.431677964602635E+00
             -0.761646779872222E+00
              0.585755255013400E+00
              0.116347934540445E+01
             -0.122328647071830E+00
             -0.450602860782833E+00
              0.327643168452578E+00
              0.115949999355582E+01
              0.118123352769804E+01
              0.240902880947479E+00
             -0.240604924115526E+00
             -0.248912415188461E+00
             -0.113624613780684E+01
              0.866270543991341E+00
             -0.522833671342517E+00
              0.493779783021552E+00
             -0.275921047723921E+00
              0.543972588691847E+00
              0.368445915303798E+00
             -0.173935225771788E+01
             -0.534521610879342E+00
             -0.167515481609415E+01
             -0.866920745454898E+00
              0.852486965625694E-01
             -0.425903040348119E+00
              0.759809218105009E+00
             -0.607692199536415E+00
              0.812005634171928E-01
              0.148986247232303E+00
              0.148235619062372E+01
              0.767585384638142E+00
             -0.701303118994198E+00
             -0.542527581474297E-01
              0.331516246239064E+00
              0.789318153884904E+00
             -0.116204494264984E-01
              0.121246565252040E+01
              0.578865308653711E+00
              0.191288252608271E+01
              0.725317147189175E-01
              0.131123489969371E+01
             -0.590126786221741E+00
             -0.835222119235210E+00
              0.368833909433022E-01
              0.239159330926530E+00
              0.469467991034871E+00
             -0.465216454013703E+00
             -0.227673599796031E+00
              0.498146902969220E+00
             -0.101450446494914E+01
             -0.128780409566549E+01
              0.169697761231778E+01
             -0.131914902128313E+00
             -0.766573124856404E+00
             -0.114483316774603E+00
             -0.290867716058688E+00
              0.955504323437586E+00
              0.769889955283031E+00
             -0.438055594361069E+00
              0.780340616069664E-02
             -0.547817456361957E+00
             -0.760682472259445E+00
             -0.502746456495768E+00
             -0.208004723997155E+01
              0.420119789406330E-01
             -0.136440244751646E+01
             -0.126123691069315E+01
             -0.785172823773365E+00
              0.481429598192774E+00
             -0.818102807125920E+00
              0.518134823149378E+00
             -0.139027263242577E+01
             -0.285210306707917E-03
             -0.901305122160759E+00
              0.176315835620407E+00
              0.166886142572296E+00
              0.765806993225110E+00
             -0.445599686201943E+00
             -0.398237607443725E+00
              0.690506309632565E+00
              0.126523614652338E+01
              0.690503209097733E+00
              0.235166237755941E+00
             -0.159514656099579E+01
             -0.340913946643505E+00
             -0.587921604664977E+00
             -0.130876691661082E+01
              0.913931844749104E+00
             -0.735061630556466E+00
             -0.165834710366221E+00
             -0.597364765925165E+00
             -0.209930979652262E+01
              0.119760075269383E+01
             -0.388069359579230E+00
              0.820071408433281E+00
             -0.158364081487186E+01
              0.139737656200277E+01
              0.134559042024067E+00
             -0.540896486412551E+00
              0.229875672185097E+00
             -0.416043055501348E+00
             -0.132003165123829E+01
              0.370383207071384E+00
              0.857083716201275E+00
             -0.357943725762730E-01
             -0.735798523468750E+00
             -0.346115033867233E+00
              0.448021140133782E+00
              0.796697503580151E+00
              0.130964197233254E+01
              0.470968718301366E+00
             -0.492298154832011E+00
              0.215687109180778E+01
              0.442442482237996E+00
              0.102326587139262E+01
             -0.359606849652900E+00
              0.628016777070803E+00
              0.516657044400832E+00
             -0.131211273471794E+01
             -0.478200622293268E+00
             -0.862728215368865E+00
             -0.900952071949447E+00
             -0.266283323646842E+00
             -0.164455398659157E+00
             -0.100168828789137E+01
             -0.235077853661302E+01
             -0.571840889194754E+00
              0.282818189401725E+00
              0.126311390134774E+00
              0.352441502895374E+00
              0.845893242975909E+00
              0.209905773776050E+00
              0.670298204625109E+00
             -0.921640475584515E+00
              0.911063750700345E+00
             -0.825708865575468E+00
             -0.141154280732865E+01
              0.436974118051026E+00
             -0.904101115478362E+00
             -0.840145872587333E+00
             -0.338996425507369E+01
             -0.151732689460455E+00
              0.180070119374379E+01
              0.855940359691004E+00
             -0.213554038229109E+00
             -0.224003235282964E+00
              0.967896986687006E+00
              0.135154358269885E+01
             -0.832937534308523E+00
             -0.278884836498143E+00
             -0.777395491844728E+00
             -0.703549643192009E+00
             -0.621338289960545E+00
              0.215858049730536E+00
              0.146852845167149E+01
             -0.138085404393392E+01
             -0.116190100252798E+01
              0.860361341910867E-01
             -0.317021126959756E+00
             -0.367846819254478E+00
             -0.189111462704619E+01
              0.134991508988008E+01
              0.409758513009860E+00
              0.202333520904618E+00
              0.111095428670185E+01
             -0.704628321901104E+00
              0.717022615229529E+00
              0.614662658483773E+00
              0.205994749388845E-01
             -0.175129788268921E+00
              0.169852279908324E+00
             -0.332990445690760E+00
              0.113248501146573E+01
             -0.833890023528471E+00
              0.998086624199464E+00
              0.193523661183704E+00
              0.371017385264160E+00
              0.416638256287452E+00
             -0.172596326171911E+01
              0.223034448559882E+00
             -0.141930409975206E+01
             -0.101940567403514E+01
             -0.100700846316881E+01
             -0.113049421568553E+01
             -0.427268392336089E-02
              0.410668944385936E+00
              0.106465326106534E+01
              0.150023925930569E+00
              0.318345848080695E+00
             -0.146884621539220E+01
             -0.592165512833265E+00
              0.689580097671826E+00
             -0.901287944124887E-01
             -0.807238949918143E-01
             -0.211377192737340E+00
              0.753817799412839E+00
             -0.192345238774571E+01
              0.284836198905177E+00
              0.430728616593424E+00
              0.824205923104494E+00
              0.779951609070724E+00
             -0.120039930357717E+01
              0.352195648197019E+00
              0.144437485812773E+00
              0.148526091464486E+00
              0.138466846738537E+00
             -0.417679777354538E+00
             -0.938395176353770E+00
              0.383941465388136E+00
              0.122974312853258E+01
             -0.540551393219957E-02
              0.299721877372916E+00
              0.267107763042940E+00
             -0.666466586693307E+00
             -0.712338548848220E+00
             -0.262428661819629E+01
             -0.798248945958848E+00
             -0.126426588320840E+01
             -0.128815869282523E+00
             -0.145910897425588E+01
              0.160260458345565E+01
             -0.724744605495930E+00
             -0.117385946964239E+01
             -0.332818293820644E+01
              0.142801679879169E+01
              0.317326078581054E+00
              0.243835159479767E+00
             -0.129544967716752E+01
              0.857853910593303E-01
             -0.356408711716564E+00
             -0.660887194799595E+00
              0.177297558895988E+00
              0.692916267767329E+00
              0.981697196503388E-01
             -0.450171613588083E+00
              0.956179142719922E-01
              0.329421510273731E-01
              0.211714321879871E+00
             -0.142685353287957E+01
              0.157215536256354E+01
             -0.881573874622604E+00
             -0.564790437064106E+00
             -0.111999470901074E+01
             -0.235342969442707E+01
              0.937376119168738E-01
             -0.124398366607025E+01
             -0.375703010564966E+00
              0.649070581827194E+00
             -0.582958280514990E+00
             -0.265648896308097E+00
             -0.281490534410239E+00
             -0.403085735800646E+00
              0.786940919830637E-01
              0.109525924347761E+01
             -0.105920581503215E+01
              0.222938534899064E+01
             -0.552868736648360E+00
              0.684124161576356E+00
             -0.408016825733881E+00
              0.247639284140805E+00
             -0.254554661928339E+00
              0.942166085993513E+00
              0.132543072659340E+01
              0.385937375344028E+00
              0.910465287476650E+00
             -0.610878796730784E+00
             -0.169476294088915E+00
             -0.496303489813515E+00
              0.134808159878570E+01
              0.116331726834946E+01
              0.844326430320674E+00
             -0.269219527970076E+00
             -0.538279866556901E+00
              0.513868227298496E+00
             -0.630028525172326E+00
             -0.311023425663018E+00
             -0.121829124447146E+00
             -0.765293341466226E+00
              0.103529622877326E+01
             -0.244099599960150E+00
              0.760747484487437E+00
              0.489260338674423E+00
              0.316858356949302E+00
             -0.716503930761866E+00
              0.513467509639468E+00
             -0.288882183379028E+00
             -0.142677519922297E+00
             -0.161470668786485E-01
             -0.101222480216910E+01
              0.164273991962820E+01
             -0.563326070950849E+00
              0.213147223647425E-02
              0.530478021661002E+00
              0.451492849768605E+00
              0.165555551260869E+01
             -0.465491994747261E+00
              0.158774976231348E+01
              0.141230433089247E+01
             -0.196583203872224E+01
              0.144078662826150E+00
             -0.386072486296512E+00
              0.261623107218600E+00
              0.907501758942590E-01
              0.469069012647166E+00
              0.136493202385752E+01
              0.214055696532604E+01
             -0.154481095814858E+01
              0.160886129765779E+01
             -0.215121329633443E+01
             -0.185629622170332E+01
             -0.321318069037735E+00
              0.197691462049354E-01
              0.168764802906905E+01
              0.673691470689555E+00
             -0.270491382049128E+00
             -0.174550571265065E+01
              0.141872912989899E+01
             -0.864517624489345E+00
              0.408126276726257E-01
             -0.118175126656589E+00
              0.276452043814619E+01
             -0.465953202971701E+00
             -0.223349517572849E+01
              0.644252800350531E+00
             -0.345396397895185E+01
              0.275437339445175E+00
             -0.822305386741987E+00
             -0.375649735929821E+00
             -0.548393821017253E+00
             -0.127110170663314E+01
              0.769481046658008E+00
             -0.781672295899543E+00
             -0.302233549380071E+00
             -0.160159907368679E+01
             -0.842929066495550E-01
             -0.115924150258103E+01
             -0.164599865923826E+01
             -0.222089053231108E+01
              0.167185387075658E+00
             -0.803245131690401E+00
              0.242358133102799E+00
             -0.300444397201634E+00
             -0.177111924112109E+01
             -0.137094801268356E+01
             -0.121084787065358E+01
             -0.126062379165784E+01
              0.110637808561698E+01
              0.110281122630095E+00
             -0.106021122448500E+01
             -0.537642374325769E+00
             -0.598538714162974E+00
              0.897037631379780E+00
             -0.640042992122246E+00
             -0.809378072985496E-01
             -0.690128859695536E+00
             -0.840648166069861E+00
             -0.894454459382387E+00
              0.860307320798456E+00
             -0.261885109810000E+00
             -0.196248535865748E+01
              0.164183218899640E+01
              0.957640602320341E+00
              0.539813125666697E-01
             -0.174452972067913E+01
             -0.157478074886639E+01
              0.984041523551333E-01
              0.734934706490797E-02
             -0.725886090315260E+00
             -0.915875948861555E+00
              0.627303166648099E+00
             -0.995712966834734E-01
              0.580828523938962E+00
              0.101164457285755E+01
              0.741828656796786E+00
              0.515170805332736E+00
              0.455616451839410E+00
             -0.476072776723053E+00
             -0.335206867141300E+00
             -0.400382927084023E+00
             -0.821468363663818E+00
             -0.989033674210166E+00
             -0.127558472014965E+01
             -0.755753014023110E+00
             -0.273016092201223E+00
             -0.156143129296934E+01
             -0.387843456902644E+00
              0.777832674447009E+00
             -0.182831473186378E+01
              0.803244996355341E+00
              0.645403305051049E+00
             -0.154741306976723E+01
             -0.117750438715911E+01
             -0.497173466918526E+00
              0.248131482505544E+00
             -0.884869019833099E+00
              0.161655201300816E+01
              0.142450524291686E+01
             -0.164662438601006E+01
              0.863178101023802E+00
              0.769080335113788E+00
              0.218871717277264E+00
              0.389847318622857E+00
             -0.909007356368797E+00
             -0.337460485083608E+00
              0.149328626875009E+00
              0.441764731862835E+00
              0.868764697212806E+00
             -0.114762539049092E+01
             -0.251390325640148E+00
              0.337001252647653E+00
              0.245953778065421E+00
             -0.740927100206673E+00
              0.396417623148601E+00
             -0.522669106809747E+00
             -0.377564586061671E+00
             -0.294987608464830E-01
             -0.131640003029529E+01
             -0.110363659366894E-01
             -0.158392688239575E+00
             -0.331977717780267E+00
              0.359441912765868E+00
             -0.111256873377057E+01
              0.125645790451875E+01
             -0.450218016987784E+00
             -0.287131183951117E+01
             -0.183246129363377E+01
              0.732085777139243E+00
             -0.908903405803832E+00
             -0.463032306522143E+00
             -0.484433329705112E+00
             -0.418684120511027E+00
             -0.221351352365128E+01
             -0.157389178153799E-02
             -0.131465699827208E+01
             -0.733865514752766E+00
              0.402578809090670E+00
              0.170196704001058E+01
              0.108890130472038E+00
              0.644572648693611E-01
              0.128342948802627E+01
             -0.126249869341034E+01
              0.582844522161393E+00
              0.117076527574897E+00
             -0.114399214277669E+01
             -0.678447483328725E+00
              0.404394956687057E+00
              0.703735941077985E-01
              0.374227052942512E+00
              0.289530267067983E+00
             -0.500104250657913E+00
             -0.722740320126103E+00
             -0.106527773556792E+01
              0.106607702314902E+01
             -0.145567150846261E+01
             -0.107966951131746E+01
              0.309767869984081E+00
             -0.177847110736540E+01
              0.512361649203930E+00
              0.128036354093949E+01
             -0.261737252157035E+00
              0.446952007716814E+00
             -0.737778575529031E+00
             -0.478727162355716E+00
              0.231874290553625E+00
              0.768335061383569E+00
             -0.773567472761158E+00
              0.468663615539024E+00
             -0.308742136282955E+00
              0.184995488048631E+00
              0.381002171224772E+00
              0.180842029768171E+00
             -0.280660062736934E+00
             -0.178511289104879E-01
              0.232584607554955E+00
              0.600580443422399E+00
             -0.150668219910528E+01
             -0.504452933075399E-01
              0.112049715359497E+01
             -0.185812318551612E+01
              0.702543126539450E+00
             -0.241113125957246E+01
             -0.250768259622652E+00
             -0.300230460299092E+00
             -0.490253247428249E-01
             -0.283546481033403E+00
             -0.589611360435796E+00
             -0.243651560931267E+00
              0.248824216006280E+00
             -0.554653303970112E+00
              0.226494301153028E+00
              0.194009734407758E+01
             -0.120306801839886E+01
             -0.533035497797078E+00
              0.905377211751512E+00
              0.439121502871203E+00
              0.916369010793841E+00
              0.445293580025260E+00
              0.327313238962188E+00
             -0.301194992731836E+00
             -0.105048044599393E+01
             -0.957770532432841E+00
             -0.767871772992490E+00
              0.134274414257962E+00
             -0.902707522854909E+00
             -0.245937875364257E+00
              0.127217498566764E+00
              0.526388981039405E+00
             -0.139160314623314E+00
              0.126492667011692E+01
             -0.142644838195565E+01
             -0.146530350369689E-01
             -0.164622011532406E+00
              0.675131790190263E+00
             -0.902589003049113E+00
             -0.592692578395456E+00
              0.253791306462482E+00
              0.949133560977884E+00
              0.162323555436374E+01
              0.624451702101005E+00
              0.988162904606392E+00
             -0.519395237684609E+00
              0.134504077120668E+01
              0.134240009733727E+01
             -0.922404360788853E-02
              0.631122628188555E+00
              0.797963087663065E+00
             -0.436473543112607E+00
              0.327722781048081E+00
              0.140290510283459E+01
             -0.437870364593850E+00
             -0.119089512321231E+00
             -0.132572415603434E+01
              0.460619410113086E+00
             -0.335903472740315E+00
              0.467662451799216E+00
              0.175587642980086E-01
             -0.831860546389558E+00
              0.965893587857853E+00
              0.832897047354224E+00
             -0.683394958398698E+00
              0.363533115529635E+00
             -0.128010198809841E+01
             -0.116523202354982E+01
              0.533713490018350E+00
             -0.145268564279006E+01
             -0.748153404918179E+00
             -0.846329388499711E-03
              0.183551468301726E+01
             -0.486135709341462E+00
             -0.235975299907727E+00
             -0.448425488718250E+00
              0.237772023403201E+01
              0.392157092832679E+00
             -0.909467573024100E+00
              0.151785290842753E+01
              0.132484664857421E+01
              0.699318368668078E+00
              0.170702003246635E+01
              0.187648013503743E+01
             -0.564138820698306E-01
             -0.609956382121641E+00
             -0.513566572549312E+00
              0.594788104008084E+00
              0.836826194671106E+00
             -0.158803616298889E+00
             -0.516900050717966E+00
             -0.121016881944095E+01
             -0.420937663482569E+00
             -0.993526898165776E+00
              0.729913407607085E+00
              0.381549150240758E+00
              0.128658076985444E+01
              0.304355373482847E+00
             -0.486093681619749E+00
             -0.191005816936133E+00
              0.845232573584967E+00
              0.215635990349812E+00
              0.132799778226175E+01
              0.117063711792522E+01
             -0.167820688708000E+00
             -0.193878551428501E+00
             -0.218325192045403E+01
              0.104418088399163E+01
              0.881297927013769E-02
              0.124109588249964E+01
             -0.559981089503245E+00
             -0.141911987503416E+01
              0.407765767237567E+00
              0.155903390729042E+01
             -0.535791813708245E+00
              0.139672355147979E+01
             -0.152371155890723E+01
             -0.562416561470867E+00
             -0.184135314801926E+01
              0.328432711092701E+00
              0.869369847347086E-01
              0.197344921232415E+00
             -0.132744549337475E+01
              0.199666857814361E+01
              0.114841069746535E+01
              0.123595678260735E+00
             -0.118639754493926E+01
              0.427583380360316E+00
             -0.369922684865179E+00
             -0.328815624048923E+00
             -0.595032558383810E+00
              0.347250489170119E+00
             -0.382955435061425E+00
             -0.386611775711085E+00
              0.506085705274417E+00
              0.496629198013702E+00
             -0.192093653833169E+01
              0.421507407647769E+00
              0.140713503327080E+01
              0.903237290515713E+00
             -0.275749925138660E+00
             -0.567235894849469E-01
             -0.781777165860503E+00
              0.118075405053008E+01
              0.173813890353337E+00
             -0.508280747998713E-01
             -0.129322108201896E+00
              0.230943102527373E+01
             -0.171350473880843E+00
              0.449068520019721E+00
              0.159671413616883E+01
              0.203739173613356E+01
              0.126045174485027E+01
              0.819825921218476E+00
             -0.137106941104740E+01
             -0.991674749155692E+00
              0.775203234171401E+00
              0.123643313096646E+00
              0.655260336368574E+00
              0.256098213431923E+00
              0.139149160040945E+01
             -0.169483466265009E+01
             -0.103943779511074E+01
             -0.250391173406850E+00
             -0.185988095616744E+01
              0.419222520494040E+00
              0.100309142171706E+01
             -0.153754473659475E-01
             -0.430718153238271E+00
              0.433610461840812E+00
              0.284801123149250E+01
              0.690104816030255E+00
              0.379228040338404E+00
             -0.997662856443632E+00
             -0.121560756606968E+01
             -0.279612021181437E+00
              0.609587253132270E+00
             -0.125925825895736E+00
              0.573870811631819E+00
              0.757837479579985E+00
             -0.128854734498896E+01
              0.579684696516130E+00
              0.674311231922161E+00
              0.118457999804293E+01
             -0.221711779002749E+00
              0.129504963569811E+00
             -0.145628073622107E+00
             -0.932497568068538E+00
             -0.156736266879537E+01
              0.159649916228455E+01
             -0.222388464595931E+00
             -0.110998632952565E+01
              0.193301264160152E+00
             -0.659102534223028E+00
              0.180132968587585E+01
             -0.488047544553849E+00
             -0.812734158246271E+00
              0.802760248528953E+00
             -0.337846513561872E+00
              0.994173607049982E+00
              0.771624907533459E-01
              0.194244298279066E+01
              0.112991171745988E+01
              0.292006171128133E+00
             -0.846979609658940E+00
              0.616341366464879E+00
             -0.114804004302842E+01
             -0.843591834634609E-01
              0.137187312616919E+01
             -0.537760885564544E+00
             -0.912304166973868E+00
             -0.494480960772978E+00
              0.108605973345306E+01
              0.236822368613201E+00
             -0.171368749004434E+01
              0.730286768259962E+00
              0.112022364273692E+00
              0.247212969541663E+00
             -0.102917828420536E+01
              0.222590078372987E+00
              0.726524924045715E+00
              0.952080008138401E+00
              0.139869410502254E+01
              0.761108933612477E+00
              0.162872407563158E+00
             -0.119017148641081E+01
             -0.883038449164781E+00
             -0.134105002416622E+01
             -0.327716846922382E+00
              0.731981464770072E+00
              0.376128830819233E-02
              0.109713439617386E+01
             -0.684123063941534E+00
              0.363161381611606E+00
             -0.518253666832890E+00
             -0.569469678704343E+00
              0.124958122047168E+01
              0.108000252662348E+00
              0.133548513029748E+01
              0.115215758543158E+00
              0.402232575362283E+00
             -0.334569860958645E+00
              0.126666183421647E+01
             -0.367429159940319E+00
              0.507651420480493E-02
             -0.165490601070323E+01
             -0.140515994357225E+00
              0.146327077061059E+01
              0.134654532388471E+01
              0.541848675891939E+00
             -0.338158091541229E+00
              0.125604187259093E+00
             -0.518077488248773E+00
             -0.450098105008439E+00
              0.191178965672467E+01
              0.178944053239317E+00
             -0.632260605862278E+00
             -0.223957420850782E+01
             -0.872022604722340E+00
             -0.806065846098488E+00
             -0.127607457663321E+01
             -0.127382229819354E+01
             -0.149110052136338E+01
             -0.953853616201204E+00
             -0.566009740819625E+00
             -0.102232633870283E+01
              0.931553422614320E+00
             -0.345123075285811E+00
             -0.173356149399517E+01
              0.876666911608276E+00
             -0.727622848493413E+00
             -0.167455740238085E+01
              0.213685315602190E+01
             -0.552789467974222E+00
              0.302121822622602E+00
              0.783147855207596E+00
              0.322215863297716E+00
              0.566250660170062E+00
              0.213705750166784E-01
              0.315693593946987E-01
             -0.280067034573782E+00
             -0.157057633034681E+01
              0.228194646450112E+00
             -0.251518594804168E+01
              0.156422108154371E+01
             -0.853428613871173E+00
             -0.413935807243783E+00
             -0.450830789085293E+00
              0.494289601962450E+00
             -0.327284964377555E+00
              0.587314615617795E+00
             -0.125210675818082E+01
              0.754186356704247E+00
              0.927764725515666E+00
              0.162912782654498E+00
              0.203566393421005E+00
              0.459588678434933E+00
              0.223025167999904E+00
              0.619083972853046E+00
             -0.774983055054479E-01
             -0.162346438573946E+01
              0.203696696551376E+00
             -0.751025786726714E+00
             -0.664906474420377E-01
              0.121187436309641E+01
             -0.168217793738409E+01
              0.557825948550432E-01
              0.807348379227228E-01
              0.204533451647809E+00
              0.639171447235872E+00
             -0.265711912416500E+00
              0.178504238389612E+01
              0.740603718330647E+00
             -0.291604402200343E+00
             -0.168661792857178E+00
              0.144631981328129E+00
              0.165896327103943E+01
             -0.102492786166869E+01
             -0.213060043946807E+01
              0.620942775201012E+00
             -0.173875207250975E+00
             -0.344367874873975E+00
              0.417659944127200E+00
              0.159052519856700E+01
              0.868609645873536E+00
             -0.356294268768772E+00
             -0.116318686170732E+01
             -0.287640688527299E+00
              0.577385613302634E+00
             -0.393330251384693E+00
             -0.161887558961909E+01
             -0.221098718125609E+00
             -0.209568659793884E+01
             -0.110813914526931E+01
              0.187694613720943E+01
             -0.111898399551575E+01
             -0.153090286177450E+01
             -0.112487591919234E+01
             -0.860393006183132E+00
              0.733606319282396E+00
              0.181535958730427E+01
             -0.228921481166222E+00
              0.563901173105561E+00
             -0.443482349538074E+00
             -0.144909477199785E+01
              0.110767721015633E+01
             -0.104200056623269E+01
              0.510834016114438E+00
              0.579348508403361E+00
             -0.351753312108771E+00
              0.763438228659617E+00
              0.800558588350196E+00
              0.261336721033202E+01
             -0.195550198291910E+00
             -0.124427842891239E+01
             -0.141733233105342E+01
             -0.424310758867972E+00
             -0.926825399090381E+00
              0.194731186029314E+01
             -0.964044209434634E+00
              0.217901593001471E+00
              0.314471498302140E-01
             -0.396280756326866E+00
             -0.185142749985424E+01
             -0.140815061873925E+00
              0.214023816664943E+01
              0.498560105526197E+00
              0.154356966878604E+00
             -0.128069437418145E+01
             -0.114707242255954E+01
             -0.412010618646749E+00
              0.956837588614796E+00
             -0.577494908597089E+00
              0.212557545016636E+01
             -0.103581394224862E+01
              0.414935414666713E+00
             -0.252970351666113E+00
             -0.129995792786782E+01
              0.157525730650983E+00
             -0.121694098035117E+01
             -0.156933717207779E+01
              0.252144905447475E+00
              0.298199338567784E-01
              0.104273702337357E+01
              0.588446792237503E+00
             -0.755856999487175E+00
              0.459599739965034E+00
             -0.191373100857976E+01
             -0.988656484364544E+00
              0.198105657513913E+01
              0.446437297797866E-01
             -0.850446763944355E-01
             -0.503570230619043E+00
             -0.812547781656470E-02
             -0.272545957387036E+00
              0.198460870800130E+01
              0.882137571997808E+00
             -0.157748940459115E+00
              0.306753492887619E-01
             -0.797053038914098E+00
             -0.241820188447129E+00
             -0.130089281507655E+01
              0.111114299730363E+01
              0.142680051558756E+00
              0.149431278200609E+00
              0.415958546714397E+00
             -0.317866327521721E+00
             -0.498109624161639E+00
              0.224283980146076E+00
             -0.239774984512944E+01
             -0.206322770561899E+00
             -0.218406717962849E+00
             -0.124481678144496E+00
              0.100816659869212E+01
              0.139154971638145E+01
              0.388066603776466E+00
             -0.197875237027379E+01
              0.135730715131196E+01
             -0.517199361257198E+00
             -0.787611365003110E+00
             -0.186162732579535E+01
             -0.550438655847830E+00
              0.136961079967444E+01
              0.734684786913069E+00
              0.363184157964325E+00
              0.761432611448773E+00
             -0.118765187324479E+01
             -0.106018117669344E+01
              0.135193263693786E+01
              0.890445228839336E+00
              0.987725851039077E+00
              0.219822290854307E+00
              0.236455365768293E+00
              0.112272069946862E+01
              0.210044889186738E+01
             -0.356287633867488E+00
              0.876219978549734E+00
             -0.676585617046793E+00
             -0.934466596726251E+00
             -0.749914510741226E+00
             -0.733564215150196E+00
             -0.299805843728261E+00
             -0.100366562326646E+01
             -0.390734597208227E+00
             -0.273412580865852E+01
              0.661834181779248E+00
              0.623102566291000E+00
             -0.734825242557737E-01
             -0.779570647587970E+00
             -0.372483002488837E+00
             -0.121767537394008E+01
              0.105061427686151E+00
              0.167976672180483E+01
             -0.392307377027867E+00
             -0.409639627387045E+00
              0.406612811828889E+00
             -0.109395282721615E+01
              0.181895361893572E+01
              0.322019595227358E+00
              0.102756859111812E+00
              0.110536131617948E+01
             -0.156329649784389E+00
              0.126287780393782E+01
              0.441731534402024E+00
             -0.155692587546827E-01
              0.295016751956629E+00
             -0.237337422146036E+00
              0.141565814395803E+01
              0.149055726031595E+00
              0.475110429949163E+00
             -0.192550938259304E+00
              0.220209342168490E+00
             -0.200464060954131E+01
             -0.743837221399797E+00
             -0.107057058388605E+01
              0.105875678281232E+01
             -0.773146177097096E+00
             -0.116041313340962E+01
              0.128053074500201E+01
             -0.290409552612751E+00
              0.875414713709002E+00
             -0.188988517918771E+01
              0.355114207330734E+00
              0.706492317574907E-01
              0.153849761199005E+00
             -0.305456814568318E+00
             -0.139014716436984E+00
              0.106609198803075E+01
              0.561731635664886E-01
             -0.114480427857482E+01
             -0.476643231307978E+00
              0.373134612829537E+00
             -0.245348997413609E+01
             -0.183428154665947E+01
              0.128456764233498E-01
              0.363191577494042E+00
             -0.111383597272365E+01
              0.400093101529233E-01
              0.217505751556741E+01
              0.601243917787434E+00
             -0.114468221561153E+01
              0.161719412400128E+00
             -0.226749480680117E+00
              0.287306768379537E+00
             -0.777217065569018E+00
              0.510170236754095E+00
              0.492057648804213E+00
             -0.192300459419120E+00
              0.240967977488305E+01
             -0.664515136280595E-01
             -0.651010894020104E+00
              0.692428244384141E+00
              0.911477166973215E+00
             -0.670238724079940E+00
             -0.126174011643854E-01
              0.210055795119461E+01
             -0.173830920621789E-01
              0.110107076755952E+01
              0.353056257539873E+00
             -0.134623345343793E+00
             -0.303894392606553E+00
              0.993917604138486E+00
             -0.127543534986908E+01
             -0.342207072738336E-01
             -0.438338993451024E+00
             -0.848239250118986E+00
              0.231664151826388E+00
              0.545232215808343E+00
             -0.589940486856744E-01
             -0.369733354971853E-01
             -0.898290408338001E+00
              0.304859703537328E+00
             -0.235592237941322E-01
             -0.454130250039548E+00
             -0.419967367727363E+00
              0.337691039063044E+00
              0.526854010288780E-02
             -0.832740146588357E+00
             -0.229532457198414E+01
              0.144163457006265E+00
              0.290823801580887E+00
             -0.105422910297910E+01
             -0.550333180559949E+00
              0.175840782672055E+01
              0.297037008541302E+00
              0.976044140987760E+00
              0.249965917170277E+00
              0.866054696523712E+00
              0.421271671566359E-01
             -0.850892786458199E+00
             -0.294773956279855E+00
              0.104372617791762E+00
              0.682154427641197E+00
              0.156381563557068E+01
              0.104918204425864E+01
              0.691915389587932E-01
              0.242461450539865E+00
              0.129827046050564E+01
              0.610178148387302E+00
             -0.146324922912568E+01
             -0.589193009287628E+00
              0.220254349494035E+00
              0.222368189878607E+00
              0.538176446387840E+00
             -0.108099848693567E+01
              0.797874328631007E-01
              0.897543848330717E+00
              0.103413561412124E+01
             -0.897878334721439E+00
              0.914460960005155E-01
             -0.593253107765817E-01
             -0.461392191891286E+00
             -0.511998239389099E+00
             -0.225569310014609E+00
             -0.303510889690346E+00
              0.248781230476093E+00
              0.897906315945757E+00
             -0.695284405545210E+00
              0.173111091839913E+01
              0.707112151622369E+00
              0.571801132588392E+00
              0.811199010831467E+00
              0.502177117721241E+00
              0.773724022836227E+00
              0.118657151037716E+01
             -0.101489077747449E+01
              0.134115838145731E+01
             -0.244197696940992E+01
              0.670826198840019E+00
             -0.223389271934396E+01
              0.170865271395767E+01
              0.168376212259377E+01
             -0.170965857127991E+00
             -0.987518172998132E+00
             -0.925455815895067E+00
             -0.112750442157260E+01
             -0.141561843986004E+01
              0.116449570388847E+01
              0.916451966448180E+00
              0.518438155437519E+00
              0.517133242513170E+00
              0.981674226591776E+00
             -0.880744756129024E+00
             -0.298732625849596E+00
              0.113015204437744E+01
             -0.263559584065414E+00
              0.106019590748138E+01
              0.167499034535924E+01
             -0.872875306671894E-01
             -0.162346248217088E+01
              0.144518192086119E+00
              0.311926144157351E-01
             -0.225703730472308E+00
              0.674833790704845E-01
             -0.137170510902959E+01
             -0.140211530768662E+00
              0.314488287031139E+00
              0.326461254965691E+00
              0.108089183251494E+01
             -0.912693194911016E+00
              0.105545258878838E+01
             -0.814102491460784E+00
              0.605392238151063E+00
              0.944475196285120E+00
 
 BEEF-vdW xc energy contributions
           1 :   -14.8197084323950     
           2 :    12.0994923286115     
           3 :   -8.18068887969239     
           4 :    4.51162696165268     
           5 :   -1.79474711613577     
           6 :   0.174057659760329     
           7 :   0.511410283255458     
           8 :  -0.597530281935466     
           9 :   0.455864648672136     
          10 :  -0.366898998622187     
          11 :   0.426676011471095     
          12 :  -0.566688287530329     
          13 :   0.657071334734470     
          14 :  -0.616859050247346     
          15 :   0.448350378921994     
          16 :  -0.221441101446086     
          17 :   2.739783564377518E-002
          18 :   6.866890557762417E-002
          19 :  -6.322527980995218E-002
          20 :   5.800605782642521E-003
          21 :   3.823115265014465E-002
          22 :  -3.101979809292033E-002
          23 :  -2.106888556858166E-002
          24 :   7.643167196629719E-002
          25 :  -9.145947742908334E-002
          26 :   5.033800843100167E-002
          27 :   2.619562052205637E-002
          28 :  -0.100069437349838     
          29 :   0.141000874607396     
          30 :  -0.142580945589813     
          31 :   -2.05152967862935     
          32 :   -1.27093051357482     

     Writing output data file ./pwscf.save/
 
     init_run     :    148.39s CPU    153.46s WALL (       1 calls)
     electrons    :  10183.02s CPU  10277.62s WALL (       1 calls)
     forces       :     60.95s CPU     64.67s WALL (       1 calls)

     Called by init_run:
     wfcinit      :     54.92s CPU     55.94s WALL (       1 calls)
     potinit      :     72.56s CPU     75.20s WALL (       1 calls)
     hinit0       :     15.80s CPU     16.08s WALL (       1 calls)

     Called by electrons:
     c_bands      :   1730.02s CPU   1749.31s WALL (      13 calls)
     sum_band     :    335.06s CPU    348.40s WALL (      13 calls)
     v_of_rho     :    432.43s CPU    466.90s WALL (      14 calls)
     newd         :     31.03s CPU     44.36s WALL (      14 calls)
     PAW_pot      :      1.81s CPU      1.81s WALL (      14 calls)
     mix_rho      :   7714.50s CPU   7731.91s WALL (      13 calls)
     vdW_kernel   :     33.51s CPU     33.51s WALL (       1 calls)

     Called by c_bands:
     init_us_2    :     30.76s CPU     30.91s WALL (     224 calls)
     cegterg      :   1669.42s CPU   1688.17s WALL (     104 calls)

     Called by *egterg:
     cdiaghg      :      0.16s CPU      0.16s WALL (     617 calls)
     h_psi        :   1445.79s CPU   1452.66s WALL (     625 calls)
     s_psi        :     59.88s CPU     59.91s WALL (     625 calls)
     g_psi        :      4.81s CPU      4.82s WALL (     513 calls)

     Called by h_psi:
     h_psi:calbec :     39.14s CPU     39.51s WALL (     625 calls)
     vloc_psi     :   1338.59s CPU   1339.15s WALL (     625 calls)
     add_vuspsi   :     60.61s CPU     60.71s WALL (     625 calls)

     General routines
     calbec       :     50.61s CPU     51.10s WALL (     761 calls)
     fft          :    385.47s CPU    385.62s WALL (    2853 calls)
     ffts         :   2458.69s CPU   2459.31s WALL (   18199 calls)
     fftw         :   1277.87s CPU   1278.19s WALL (    9478 calls)
 
     Parallel routines
 
     PWSCF        :      3h 8m CPU      3h11m WALL

 
   This run was terminated on:  15: 4:33  20May2022            

=------------------------------------------------------------------------------=
   JOB DONE.
=------------------------------------------------------------------------------=
