
     Program PWSCF v.6.7MaX starts on 21Dec2022 at  9:17:15 

     This program is part of the open-source Quantum ESPRESSO suite
     for quantum simulation of materials; please cite
         "P. Giannozzi et al., J. Phys.:Condens. Matter 21 395502 (2009);
         "P. Giannozzi et al., J. Phys.:Condens. Matter 29 465901 (2017);
          URL http://www.quantum-espresso.org", 
     in publications or presentations arising from this work. More details at
     http://www.quantum-espresso.org/quote

     Parallel version (MPI), running on     1 processors

     MPI processes distributed on     1 nodes
     Reading input from co-gas-ensemble.in
Warning: card &CELL ignored
Warning: card / ignored

     Current dimensions of program PWSCF are:
     Max number of different atomic species (ntypx) = 10
     Max number of k-points (npk) =  40000
     Max angular momentum in pseudopotentials (lmaxx) =  3
     file O.pbe-nl-kjpaw_psl.1.0.0.UPF: wavefunction(s)  2S 2P renormalized
     file C.pbe-n-kjpaw_psl.1.0.0.UPF: wavefunction(s)  2S 2P renormalized

     **************************************************************************
     Initializing libbeef V0.1.2 with the BEEF-vdW functional.
     Citation: Wellendorff et al., PRB 85, 235149 (2012).
     **************************************************************************


     IMPORTANT: XC functional enforced from input :
     Exchange-correlation= BEEF-VDW
                           (   1   4  43  14   2   0   0)
     Any further DFT definition will be discarded
     Please, verify this is what you really want


     gamma-point specific algorithms are used

     Subspace diagonalization in iterative solution of the eigenvalue problem:
     a serial algorithm will be used

 
     G-vector sticks info
     --------------------
     sticks:   dense  smooth     PW     G-vecs:    dense   smooth      PW
     Sum       27281   27281   6817              3584797  3584797  448027
 


     bravais-lattice index     =            0
     lattice parameter (alat)  =      37.7945  a.u.
     unit-cell volume          =   57091.8276 (a.u.)^3
     number of atoms/cell      =            2
     number of atomic types    =            2
     number of electrons       =        10.00
     number of Kohn-Sham states=            9
     kinetic-energy cutoff     =      60.0000  Ry
     charge density cutoff     =     240.0000  Ry
     scf convergence threshold =      1.0E-07
     mixing beta               =       0.7000
     number of iterations used =            8  local-TF  mixing
     Exchange-correlation= BEEF-VDW
                           (   1   4  43  14   2   0   0)

     celldm(1)=  37.794522  celldm(2)=   0.000000  celldm(3)=   0.000000
     celldm(4)=   0.000000  celldm(5)=   0.000000  celldm(6)=   0.000000

     crystal axes: (cart. coord. in units of alat)
               a(1) = (   1.000000   0.000000   0.000000 )  
               a(2) = (   0.000000   1.000000   0.000000 )  
               a(3) = (   0.000000   0.000000   1.057517 )  

     reciprocal axes: (cart. coord. in units 2 pi/alat)
               b(1) = (  1.000000  0.000000  0.000000 )  
               b(2) = (  0.000000  1.000000  0.000000 )  
               b(3) = (  0.000000  0.000000  0.945611 )  


     PseudoPot. # 1 for O  read from file:
     /users/bkreitz1/quantum-espresso/potentials/O.pbe-nl-kjpaw_psl.1.0.0.UPF
     MD5 check sum: eef08af8b58d9ec80f8fdb78829eb7cf
     Pseudo is Projector augmented-wave + core cor, Zval =  6.0
     Generated using 'atomic' code by A. Dal Corso  v.6.7MaX
     Shape of augmentation charge: PSQ
     Using radial grid of 1095 points,  4 beta functions with: 
                l(1) =   0
                l(2) =   0
                l(3) =   1
                l(4) =   1
     Q(r) pseudized with 0 coefficients 


     PseudoPot. # 2 for C  read from file:
     /users/bkreitz1/quantum-espresso/potentials/C.pbe-n-kjpaw_psl.1.0.0.UPF
     MD5 check sum: a169b0ebad56f5ec0d79c4633f80bf22
     Pseudo is Projector augmented-wave + core cor, Zval =  4.0
     Generated using 'atomic' code by A. Dal Corso  v.6.7MaX
     Shape of augmentation charge: PSQ
     Using radial grid of 1073 points,  4 beta functions with: 
                l(1) =   0
                l(2) =   0
                l(3) =   1
                l(4) =   1
     Q(r) pseudized with 0 coefficients 


     atomic species   valence    mass     pseudopotential
        O              6.00    15.99900     O ( 1.00)
        C              4.00    12.01100     C ( 1.00)

     No symmetry found



   Cartesian axes

     site n.     atom                  positions (alat units)
         1           O   tau(   1) = (   0.5000000   0.5000000   0.5572516  )
         2           C   tau(   2) = (   0.5000000   0.5000000   0.5002654  )

     number of k points=     1  Gaussian smearing, width (Ry)=  0.0050
                       cart. coord. in units 2pi/alat
        k(    1) = (   0.0000000   0.0000000   0.0000000), wk =   2.0000000

     Dense  grid:  1792399 G-vectors     FFT dimensions: ( 192, 192, 200)

     Estimated max dynamical RAM per process >       2.55 GB

     Initial potential from superposition of free atoms

     starting charge    9.99996, renormalised to   10.00000

     negative rho (up, down):  1.490E-02 0.000E+00


     %%%%%%%%%%%%%%%%%%%%%%%%%%%%%%%%%%%%%%%%%%%%%%%%%%%%%%%%%%%%%%%%%%%%%%%%
     %                                                                      %
     % You are using vdW-DF, which was implemented by the Thonhauser group. %
     % Please cite the following two papers that made this development      %
     % possible and the two reviews that describe the various versions:     %
     %                                                                      %
     %   T. Thonhauser et al., PRL 115, 136402 (2015).                      %
     %   T. Thonhauser et al., PRB 76, 125112 (2007).                       %
     %   K. Berland et al., Rep. Prog. Phys. 78, 066501 (2015).             %
     %   D.C. Langreth et al., J. Phys.: Condens. Matter 21, 084203 (2009). %
     %                                                                      %
     %                                                                      %
     % If you are calculating the stress with vdW-DF, please also cite:     %
     %                                                                      %
     %   R. Sabatini et al., J. Phys.: Condens. Matter 24, 424209 (2012).   %
     %                                                                      %
     %%%%%%%%%%%%%%%%%%%%%%%%%%%%%%%%%%%%%%%%%%%%%%%%%%%%%%%%%%%%%%%%%%%%%%%%


     Starting wfcs are    8 randomized atomic wfcs +    1 random wfcs
     Checking if some PAW data can be deallocated... 

     total cpu time spent up to now is       61.5 secs

     Self-consistent Calculation

     iteration #  1     ecut=    60.00 Ry     beta= 0.70
     Davidson diagonalization with overlap
     ethr =  1.00E-02,  avg # of iterations =  7.0

     negative rho (up, down):  1.204E-02 0.000E+00

     total cpu time spent up to now is       99.0 secs

     total energy              =     -61.39391639 Ry
     estimated scf accuracy    <       0.23567507 Ry

     iteration #  2     ecut=    60.00 Ry     beta= 0.70
     Davidson diagonalization with overlap
     ethr =  2.36E-03,  avg # of iterations =  1.0

     negative rho (up, down):  9.729E-03 0.000E+00

     total cpu time spent up to now is      133.9 secs

     total energy              =     -61.41730895 Ry
     estimated scf accuracy    <       0.04174709 Ry

     iteration #  3     ecut=    60.00 Ry     beta= 0.70
     Davidson diagonalization with overlap
     ethr =  4.17E-04,  avg # of iterations =  2.0

     negative rho (up, down):  7.503E-03 0.000E+00

     total cpu time spent up to now is      169.5 secs

     total energy              =     -61.41984575 Ry
     estimated scf accuracy    <       0.00928492 Ry

     iteration #  4     ecut=    60.00 Ry     beta= 0.70
     Davidson diagonalization with overlap
     ethr =  9.28E-05,  avg # of iterations = 16.0

     negative rho (up, down):  6.892E-03 0.000E+00

     total cpu time spent up to now is      209.4 secs

     total energy              =     -61.42137808 Ry
     estimated scf accuracy    <       0.00146365 Ry

     iteration #  5     ecut=    60.00 Ry     beta= 0.70
     Davidson diagonalization with overlap
     ethr =  1.46E-05,  avg # of iterations =  8.0

     negative rho (up, down):  1.541E-02 0.000E+00

     total cpu time spent up to now is      246.5 secs

     total energy              =     -61.42130499 Ry
     estimated scf accuracy    <       0.00069681 Ry

     iteration #  6     ecut=    60.00 Ry     beta= 0.70
     Davidson diagonalization with overlap
     c_bands:  1 eigenvalues not converged
     ethr =  6.97E-06,  avg # of iterations = 20.0

     negative rho (up, down):  3.134E-02 0.000E+00

     total cpu time spent up to now is      287.1 secs

     total energy              =     -61.42152184 Ry
     estimated scf accuracy    <       0.00027491 Ry

     iteration #  7     ecut=    60.00 Ry     beta= 0.70
     Davidson diagonalization with overlap
     ethr =  2.75E-06,  avg # of iterations = 16.0

     negative rho (up, down):  2.714E-02 0.000E+00

     total cpu time spent up to now is      327.2 secs

     total energy              =     -61.42137135 Ry
     estimated scf accuracy    <       0.00008114 Ry

     iteration #  8     ecut=    60.00 Ry     beta= 0.70
     Davidson diagonalization with overlap
     ethr =  8.11E-07,  avg # of iterations =  7.0

     negative rho (up, down):  2.586E-02 0.000E+00

     total cpu time spent up to now is      364.2 secs

     total energy              =     -61.42128128 Ry
     estimated scf accuracy    <       0.00004068 Ry

     iteration #  9     ecut=    60.00 Ry     beta= 0.70
     Davidson diagonalization with overlap
     ethr =  4.07E-07,  avg # of iterations =  8.0

     negative rho (up, down):  2.249E-02 0.000E+00

     total cpu time spent up to now is      400.7 secs

     total energy              =     -61.42125404 Ry
     estimated scf accuracy    <       0.00001290 Ry

     iteration # 10     ecut=    60.00 Ry     beta= 0.70
     Davidson diagonalization with overlap
     ethr =  1.29E-07,  avg # of iterations =  2.0

     negative rho (up, down):  2.061E-02 0.000E+00

     total cpu time spent up to now is      435.7 secs

     total energy              =     -61.42126530 Ry
     estimated scf accuracy    <       0.00000486 Ry

     iteration # 11     ecut=    60.00 Ry     beta= 0.70
     Davidson diagonalization with overlap
     ethr =  4.86E-08,  avg # of iterations =  1.0

     negative rho (up, down):  1.959E-02 0.000E+00

     total cpu time spent up to now is      470.2 secs

     total energy              =     -61.42127702 Ry
     estimated scf accuracy    <       0.00000186 Ry

     iteration # 12     ecut=    60.00 Ry     beta= 0.70
     Davidson diagonalization with overlap
     ethr =  1.86E-08,  avg # of iterations =  1.0

     negative rho (up, down):  1.938E-02 0.000E+00

     total cpu time spent up to now is      505.2 secs

     total energy              =     -61.42127875 Ry
     estimated scf accuracy    <       0.00000043 Ry

     iteration # 13     ecut=    60.00 Ry     beta= 0.70
     Davidson diagonalization with overlap
     ethr =  4.33E-09,  avg # of iterations =  1.0

     negative rho (up, down):  1.924E-02 0.000E+00

     total cpu time spent up to now is      539.7 secs

     total energy              =     -61.42127824 Ry
     estimated scf accuracy    <       0.00000016 Ry

     iteration # 14     ecut=    60.00 Ry     beta= 0.70
     Davidson diagonalization with overlap
     ethr =  1.55E-09,  avg # of iterations =  2.0

     negative rho (up, down):  1.919E-02 0.000E+00

     total cpu time spent up to now is      566.1 secs

     End of self-consistent calculation

          k = 0.0000 0.0000 0.0000 (224014 PWs)   bands (ev):

   -29.6756 -14.3935 -11.9754 -11.9754  -9.4192  -2.3476  -2.3476  -0.5356
    -0.2058

     the Fermi energy is    -7.5052 ev

!    total energy              =     -61.42127830 Ry

     total all-electron energy =      -228.032270 Ry
     estimated scf accuracy    <       0.00000003 Ry
     smearing contrib. (-TS)   =      -0.00000000 Ry
     internal energy E=F+TS    =     -61.42127830 Ry

     The total energy is F=E-TS. E is the sum of the following terms:
     one-electron contribution =     -97.78170186 Ry
     hartree contribution      =      50.36830398 Ry
     xc contribution           =     -12.21685336 Ry
     ewald contribution        =      14.93270173 Ry
     one-center paw contrib.   =     -16.72372878 Ry

     convergence has been achieved in  14 iterations

     negative rho (up, down):  1.919E-02 0.000E+00

     Forces acting on atoms (cartesian axes, Ry/au):

     atom    1 type  1   force =     0.00000153    0.00000046   -0.00197597
     atom    2 type  2   force =    -0.00000153   -0.00000046    0.00197597

     Total force =     0.002794     Total SCF correction =     0.000103

     negative rho (up, down):  1.919E-02 0.000E+00

     negative rho (up, down):  1.919E-02 0.000E+00

     negative rho (up, down):  1.919E-02 0.000E+00

     negative rho (up, down):  1.919E-02 0.000E+00

     negative rho (up, down):  1.919E-02 0.000E+00

     negative rho (up, down):  1.919E-02 0.000E+00

     negative rho (up, down):  1.919E-02 0.000E+00

     negative rho (up, down):  1.919E-02 0.000E+00

     negative rho (up, down):  1.919E-02 0.000E+00

     negative rho (up, down):  1.919E-02 0.000E+00

     negative rho (up, down):  1.919E-02 0.000E+00

     negative rho (up, down):  1.919E-02 0.000E+00

     negative rho (up, down):  1.919E-02 0.000E+00

     negative rho (up, down):  1.919E-02 0.000E+00

     negative rho (up, down):  1.919E-02 0.000E+00

     negative rho (up, down):  1.919E-02 0.000E+00

     negative rho (up, down):  1.919E-02 0.000E+00

     negative rho (up, down):  1.919E-02 0.000E+00

     negative rho (up, down):  1.919E-02 0.000E+00

     negative rho (up, down):  1.919E-02 0.000E+00

     negative rho (up, down):  1.919E-02 0.000E+00

     negative rho (up, down):  1.919E-02 0.000E+00

     negative rho (up, down):  1.919E-02 0.000E+00

     negative rho (up, down):  1.919E-02 0.000E+00

     negative rho (up, down):  1.919E-02 0.000E+00

     negative rho (up, down):  1.919E-02 0.000E+00

     negative rho (up, down):  1.919E-02 0.000E+00

     negative rho (up, down):  1.919E-02 0.000E+00

     negative rho (up, down):  1.919E-02 0.000E+00

     negative rho (up, down):  1.919E-02 0.000E+00

     negative rho (up, down):  1.919E-02 0.000E+00

     negative rho (up, down):  1.919E-02 0.000E+00

     negative rho (up, down):  1.919E-02 0.000E+00

     negative rho (up, down):  1.919E-02 0.000E+00
 BEEFens 2000 ensemble energies
             -0.907270532486901E+00
             -0.348627751501471E-01
             -0.188053290361950E+00
              0.629534446204136E+00
             -0.299148827729700E+00
             -0.226583826666148E+00
             -0.664901842986636E+00
             -0.137756745194817E+01
             -0.514438170581856E+00
             -0.561374861773675E+00
             -0.514722171449568E+00
              0.756303479632264E-01
              0.408082205848532E-01
             -0.527448834710262E-01
              0.549141072386741E-01
              0.670805421321629E+00
             -0.291896076961612E+00
             -0.164873395695099E+00
              0.328979869166368E+00
             -0.157957799057784E+01
              0.808287969209943E+00
             -0.285620024107068E+00
             -0.879919406814167E-01
             -0.135565065686348E+00
              0.179504675983173E-01
             -0.929960870639137E-01
              0.126045766131619E+01
             -0.307799491123452E+00
             -0.119268166842009E+00
             -0.795670817833197E+00
              0.101135294199709E+01
             -0.844210330195270E-01
             -0.595719793340013E+00
              0.276217936463458E+00
             -0.444666993182423E-01
              0.389362619960139E+00
              0.126641141383539E-01
              0.124879896921288E-01
              0.502215854272092E+00
             -0.144168142877147E+01
              0.776873332353351E+00
              0.165671352517404E+00
             -0.160113642610261E+00
             -0.434711210431069E+00
              0.170116331579345E+00
             -0.242391064028303E+00
              0.713952852347052E+00
              0.513874291476712E+00
             -0.292205094762313E+00
             -0.458937166508948E+00
             -0.428528532956364E+00
             -0.522909243797480E+00
              0.284384955987857E+00
             -0.750772413542199E+00
              0.224022385345824E+00
              0.867091473223861E+00
              0.105532794900432E+01
              0.459733012707336E+00
              0.247870513310776E+00
              0.442678064156881E+00
              0.129533011763363E+01
              0.261471107026000E+00
             -0.789579983097284E+00
             -0.145312255894418E+00
             -0.409973590522457E+00
              0.890767452869706E+00
             -0.104795313075142E+01
             -0.842004248465688E+00
             -0.456089337536480E+00
             -0.241772426661953E+00
             -0.580725763636719E+00
              0.394905555084792E+00
              0.190979680162510E+00
              0.227569302542063E+00
             -0.541377711272136E+00
             -0.503310702920382E+00
             -0.829527116883929E+00
              0.469525354777936E+00
             -0.483681755821894E+00
              0.432188479296970E+00
             -0.105769341354607E+00
             -0.410485479577095E+00
             -0.747667813578641E+00
             -0.222135718967055E+00
             -0.237839007346290E+00
             -0.227811027430079E+00
              0.549091352553142E+00
              0.108423556965551E+01
             -0.648530778519763E+00
             -0.114132563051180E+01
             -0.263876248236627E+00
              0.156710882602346E+01
             -0.785933385747929E+00
              0.441798124852927E+00
             -0.160723935671901E+00
             -0.859644580522731E+00
              0.394779565109172E+00
              0.458904894090222E+00
             -0.204577384106239E+00
              0.415326921993021E+00
             -0.365938516740270E+00
             -0.847086264769835E+00
              0.141325011582776E+01
              0.655204782599037E+00
              0.319607862103934E+00
              0.186540444198239E+00
              0.324054396355649E+00
              0.116170837180250E+01
             -0.379469729318593E+00
              0.352316159856989E-01
             -0.198327755906036E+01
              0.267998466887283E+00
             -0.951427705385553E+00
              0.174745431034311E+00
              0.305660493918794E+00
             -0.517666921827459E+00
             -0.721301776054845E+00
              0.501323021794935E-01
             -0.432428975844100E+00
              0.620434975867195E+00
             -0.646529273042378E+00
             -0.113196681527847E+00
             -0.548656237138286E+00
             -0.478628899007214E-01
              0.434085624106095E-01
              0.295527109734584E+00
             -0.112752627578594E-02
             -0.947822963280309E-01
              0.930292782489408E+00
              0.130738214893393E+01
              0.699987406956593E+00
              0.960498721873039E+00
             -0.192536677369199E+00
              0.128154934624481E+00
              0.740010033603452E+00
              0.415332656072143E-01
             -0.108212565025491E+01
             -0.602595196657359E+00
             -0.690426587741175E+00
             -0.419382109278542E+00
              0.357719319566430E+00
             -0.173520827897615E+01
             -0.181376259870794E+00
              0.654807601857811E+00
             -0.575143505791648E+00
             -0.431346024741227E+00
              0.804859502244518E+00
              0.707772152109539E+00
             -0.407869966542952E+00
              0.438899111221540E+00
             -0.343846652780055E+00
              0.536133342307325E+00
              0.106351663006284E+00
              0.163357741209630E+00
             -0.117847503510950E+01
             -0.690529187874325E+00
             -0.115611974340950E+00
             -0.379763541424940E-01
             -0.600109538840387E+00
              0.157874751008128E+01
             -0.178593087939766E+00
             -0.383244116062578E+00
              0.562262582769096E+00
             -0.646708063201293E+00
             -0.520293995702482E+00
              0.458376790311304E+00
              0.165487607541315E+00
              0.141519221391770E+00
              0.214064017561167E+00
             -0.149926779158382E+00
              0.157902414262483E+00
              0.842013042660790E+00
             -0.393414080418320E+00
              0.313297367854022E+00
              0.126565358341320E+01
              0.444434359880749E+00
             -0.676305869869971E-01
             -0.282337187280388E+00
              0.221078805867996E+01
             -0.340736587370630E+00
              0.548290021000712E+00
              0.423934502379361E+00
              0.417478717725877E+00
              0.132894231995076E+01
              0.658932900093100E+00
             -0.769926805082503E-01
              0.344846281814965E+00
              0.729678037622909E+00
              0.548581710667739E+00
             -0.864043770434799E+00
              0.134545591175132E+01
             -0.122095938730516E+01
             -0.169416993407590E+00
              0.808400484735169E+00
              0.214445397897652E+00
              0.817317630670580E-01
              0.404925034529750E+00
              0.232064873092290E+00
              0.467338700323034E+00
             -0.898472109265523E+00
              0.633520733023660E-01
             -0.333860823812552E+00
             -0.999465659203345E-01
             -0.430166515302659E-01
             -0.171876997923992E+00
             -0.891134560850402E-01
              0.118025991589371E+01
             -0.765020426357828E-01
             -0.410547366284319E+00
             -0.198455820428222E-01
              0.194225195422894E+00
             -0.909903860387785E+00
             -0.762685412100614E+00
             -0.487822915082861E+00
             -0.891802122685805E+00
             -0.265386393888381E+00
             -0.572196129809944E+00
              0.268621160375200E+00
              0.193177205544643E-01
             -0.178209601743884E+00
             -0.115897029742357E+00
              0.740274802741627E-01
             -0.220009389211926E+00
              0.922252026751177E+00
             -0.123650035198040E+01
             -0.191251041128666E+00
             -0.202204643696595E+00
              0.224459496116995E+00
              0.284375396498247E+00
             -0.726415679491803E+00
             -0.187027816882092E+00
              0.628185474710291E+00
             -0.282110562436654E+00
              0.180479244346570E+00
              0.491332644862133E+00
             -0.128372998593980E-01
              0.164243751773857E+01
             -0.182100156943506E+00
             -0.498510504841180E+00
              0.130080808123223E-01
             -0.389053203462017E+00
              0.768582656911077E+00
             -0.667583794962884E+00
              0.190198008500863E+00
              0.735765564819943E+00
             -0.188232343550892E+00
              0.167838324617940E+01
              0.181736515911120E+01
             -0.100508260632063E+01
              0.815843891256911E+00
              0.319924748838452E+00
             -0.796684004501343E+00
              0.259822297627757E+00
              0.587970304845062E+00
              0.648858196303574E+00
              0.720096126517111E-01
              0.237802235734250E+00
              0.105101991343849E+01
             -0.325988101330461E+00
              0.136387068015600E+00
              0.985645938903247E+00
             -0.523136546929107E+00
             -0.320640670264219E+00
              0.830238700592461E+00
              0.428344569228710E+00
              0.110796088280710E+01
              0.472999098031832E+00
              0.174334896471182E+00
              0.356169503230333E+00
              0.600650231354067E+00
             -0.723810313147007E+00
              0.908727658214010E-01
              0.366981595378930E+00
              0.145656875069209E+00
              0.337434437610688E+00
             -0.876307673999290E+00
              0.466612196274804E+00
             -0.622226156337308E+00
             -0.433295040173591E+00
              0.261426518045145E+00
             -0.137074815572451E+00
              0.838204724631199E+00
             -0.233764031983845E+00
              0.415249743311201E+00
              0.431828225055742E+00
              0.110135860213626E+01
              0.749347390714291E+00
              0.724862350686014E+00
             -0.704631454763769E-01
             -0.151948122102938E+00
             -0.419675435553483E+00
              0.115822791446986E+01
              0.117508953758442E+01
              0.552734680001415E+00
             -0.396033360297472E+00
              0.708630380701365E+00
             -0.160858555578756E-01
              0.263328958350451E+00
              0.979467353464281E+00
             -0.350759272964565E-01
             -0.138773720519079E+00
             -0.315038586239613E+00
             -0.846699058591367E+00
              0.137466424924501E+01
              0.703443163064452E+00
             -0.901962496769053E+00
             -0.300836258431724E+00
              0.372706232038899E+00
             -0.160225611946837E+00
              0.932442732996305E+00
              0.217660723188203E+00
              0.116124540788539E+01
              0.426357989430983E+00
             -0.355005745757966E+00
              0.278296762522605E+00
             -0.989301025713050E-01
             -0.381331798976507E+00
              0.255236020923738E+00
              0.244489386217463E+00
              0.127264537196837E+01
              0.109589965486259E+01
              0.801275050556830E+00
              0.976014936382910E+00
              0.942651692253575E-01
             -0.368749929946667E+00
              0.190532564386297E+00
             -0.478980604564405E+00
             -0.791404084570424E+00
             -0.816455341735382E+00
             -0.452832497289545E+00
             -0.154791871642887E+01
             -0.515970921021044E+00
             -0.122763786179458E+01
              0.287426489633282E+00
             -0.644749108313322E+00
              0.708750808955780E+00
             -0.139013916041375E+01
             -0.424334304815295E+00
              0.582993487852035E+00
              0.315805554206183E+00
             -0.128122569485776E+01
              0.785242836434872E+00
             -0.392346703592704E+00
              0.789493020938669E+00
             -0.408535081432509E+00
             -0.111840645014084E+01
              0.256897644818951E+00
             -0.938615094655246E+00
             -0.742374033250806E-01
             -0.915419366231451E-02
              0.605208273033911E+00
              0.179029150388832E+01
             -0.622982303945268E+00
             -0.535153214127770E+00
             -0.878895398422221E-01
             -0.127176609485072E+00
             -0.114191960683801E+01
             -0.811479971304609E+00
              0.719021955602782E+00
             -0.271309087497944E+00
              0.297796543822162E+00
             -0.706835638691827E+00
             -0.222201452728705E+00
             -0.595321813398609E+00
              0.692404566031327E+00
              0.201499362514349E+00
             -0.343797656900141E+00
             -0.239136601266631E+00
              0.186402208783973E+00
             -0.117490383599188E+00
              0.579349212861598E+00
             -0.385084791404815E+00
              0.133382821974340E+00
              0.473073490873045E+00
              0.200579300517779E+00
             -0.318211565638268E+00
              0.221709609986762E+01
              0.827575423091926E+00
              0.129392590326995E+00
              0.100687994496019E+00
             -0.861496906147280E+00
              0.469452403026829E+00
             -0.110898912862332E+01
             -0.475144999349141E+00
             -0.848574782629490E+00
             -0.252304657119589E+00
              0.828927820176472E+00
             -0.828742300071422E+00
              0.356469741075210E+00
             -0.476002233004928E-01
              0.278960991877142E-01
             -0.456459350924198E+00
             -0.596867996043480E+00
             -0.694981182323327E-01
             -0.510131131192311E+00
             -0.325779950773663E+00
             -0.557799216137421E+00
             -0.854406165895732E-01
             -0.459748517519885E+00
             -0.699055679587983E+00
              0.319708889392744E+00
             -0.190374899897018E+00
              0.335523377485561E+00
              0.129387114750708E+00
             -0.106999867534442E+01
             -0.740326139686316E+00
             -0.682933593425487E+00
              0.472222973749568E+00
             -0.804342141699506E-01
             -0.894924971135119E+00
              0.802261269366705E+00
             -0.600568638231942E+00
              0.817409698946234E+00
             -0.434418638478984E+00
             -0.711434903440911E+00
              0.368903533090370E+00
             -0.103388651824779E+01
             -0.465742275826859E+00
              0.855387500654545E+00
              0.280800752624693E+00
             -0.598270718611737E+00
              0.792442864108540E+00
             -0.228099997787752E+00
             -0.524927545768033E+00
             -0.433701261405385E+00
             -0.740978274605650E+00
              0.353056729747853E+00
             -0.124465303317547E+01
             -0.111238593448297E+01
             -0.107561697583245E+00
             -0.414662094585395E+00
             -0.851511853133925E+00
              0.108637575745479E+01
              0.195844529011732E+01
             -0.333815921694001E+00
             -0.457175072145137E-01
             -0.873767627768716E+00
              0.945291554977219E+00
              0.305816082847233E+00
             -0.280124455497106E+00
             -0.521994648195369E+00
              0.212698478537355E+00
             -0.864808616149003E+00
             -0.167210059005760E+00
             -0.124657617787329E+01
              0.479854995893504E+00
              0.175325052859823E+00
             -0.684462106653516E-01
             -0.145614433468578E+00
             -0.570697575952588E+00
             -0.176149067249861E+00
              0.192764856548761E+01
             -0.231005580237259E+00
             -0.676675422467662E+00
             -0.982680470532838E+00
              0.195387101612886E+00
             -0.532549315039360E+00
              0.131816542530837E+00
              0.469904174463225E+00
              0.654592527411495E-01
              0.497064316986955E+00
              0.242581286771742E+00
              0.838938027918298E+00
              0.375434415261048E+00
             -0.508897623814725E+00
              0.737672390789584E+00
              0.495093745554442E+00
              0.182000188539525E+00
              0.539114443893551E+00
             -0.422739712860312E+00
              0.102572272056179E+01
              0.354019515687388E+00
             -0.491467316837096E+00
             -0.774995257601825E-01
             -0.233695848234500E+00
              0.242254343589161E+00
             -0.384551937206888E+00
             -0.144448721125712E+00
             -0.180743826529271E+00
              0.116723223569954E+01
              0.830533997067210E+00
             -0.951195731135047E+00
             -0.995904508078986E-01
             -0.738087988430863E+00
             -0.210870594971857E+00
             -0.301228388858994E+00
              0.152854228085925E+00
             -0.559243096459493E-01
             -0.397771276408528E+00
              0.232556051906535E+00
             -0.132300857018509E+00
             -0.118308092092380E+00
              0.125035915654078E+01
              0.225239185713010E+00
             -0.117361059256048E+01
             -0.563400324923926E+00
              0.134746256796331E+01
              0.335784845686124E+00
             -0.118729432002306E+00
              0.156457585019191E+01
             -0.262582432337210E+00
             -0.118345010169467E+00
             -0.156020556054819E+00
              0.224149998799039E+00
              0.452978073729469E+00
              0.394143726987506E-01
              0.405387727560066E+00
             -0.173462028857316E+00
             -0.537099514332662E+00
             -0.556744072116606E+00
             -0.695422475547930E+00
              0.594503200929371E+00
              0.213419901226398E+00
              0.538209001622378E+00
              0.225465823893690E+00
              0.128732156681191E+01
              0.283742741083497E+00
             -0.110044488719613E+01
             -0.477071880902287E+00
              0.625969527165156E-01
             -0.404849655434751E+00
              0.903501546799859E+00
             -0.223806477567468E+00
              0.254996441662511E+00
              0.777436821961548E+00
             -0.114504793765600E+01
              0.212130202547233E+01
              0.277131981566917E+00
              0.342614856980561E+00
              0.533449962092709E+00
              0.596612884988224E-01
             -0.388057540599229E-01
              0.481315398479536E+00
             -0.491371676675320E+00
              0.122272799168365E+01
              0.106430724364262E+01
             -0.554273038148485E+00
              0.242622956438796E+00
              0.103059103398580E+01
             -0.315268270339369E+00
              0.278679321084491E+00
              0.504154403364540E+00
              0.610498034781500E+00
             -0.106780902669548E+01
             -0.996492513030205E-01
             -0.407706777640218E+00
             -0.859407906083929E-01
             -0.893663351271738E-01
              0.633337637620270E-01
             -0.210604838617698E+00
             -0.413175477335500E+00
              0.207060952164694E+00
              0.101697255293852E+00
              0.762470184595522E+00
             -0.649416000552942E+00
              0.616392041738755E+00
              0.713342492960587E+00
             -0.163145281316499E+00
              0.110417711181754E+01
             -0.961481671554290E+00
             -0.148245139590647E+01
             -0.983331304978064E-01
             -0.101001439002202E+00
              0.819996903316778E-02
              0.110158875560043E+01
             -0.353951009132007E-01
              0.598907329953874E+00
              0.822764564498131E+00
              0.562663335314918E+00
             -0.861712005875130E-01
              0.881414934929877E+00
             -0.242780584520264E+00
             -0.539410963015687E+00
             -0.554757759190362E+00
              0.129379544646536E+00
              0.536431404000561E+00
             -0.487380124393475E-01
              0.509149329389571E+00
              0.147856685394165E-02
              0.820580278428578E+00
              0.258867475066379E+00
              0.110183117331172E+00
             -0.426740231993161E-02
              0.435890258542469E+00
              0.582788490783515E+00
              0.232036953157660E+00
             -0.468851913457780E-01
             -0.768674931114735E+00
              0.428244985674579E+00
              0.295698091829400E+00
              0.494882159723843E+00
              0.439006416423181E+00
              0.513877711271258E+00
             -0.129071471382803E+00
              0.457745949392656E+00
             -0.404991560725465E+00
             -0.234852715043576E-01
             -0.766919088557485E+00
             -0.498233639296128E+00
              0.616894116827892E+00
             -0.126824543784301E+01
              0.366071320278293E+00
              0.205553364847392E+00
              0.121968960595249E+01
             -0.238898490785902E+00
              0.455978688493626E+00
             -0.169061779149388E+00
             -0.705286503816486E+00
             -0.975546831451034E+00
             -0.191767505718745E+00
             -0.129524265846562E+01
              0.148481398844194E+00
             -0.295853946896093E+00
              0.455741954439898E+00
              0.322103172862855E+00
             -0.392823798637375E+00
             -0.405349149771952E+00
              0.613913396439513E+00
             -0.805905343362257E+00
             -0.181898516445992E+00
             -0.240790588994947E+00
              0.368857925545691E+00
              0.273710779599154E-01
              0.619950486454754E-01
             -0.238017144448819E+00
              0.774759434262955E+00
             -0.807847223038804E+00
              0.111181409489850E+00
              0.848918197233866E+00
             -0.506248327762876E+00
              0.398386582971395E-01
              0.142754661334177E-02
             -0.957587519658392E+00
             -0.590928745757604E+00
             -0.468235536296676E-01
              0.432330478999283E+00
              0.481955867577090E+00
              0.624658894325929E-01
             -0.159616814875948E+00
              0.272020320298266E+00
             -0.606307036131033E+00
             -0.527648291620775E-01
             -0.747287189205140E+00
             -0.367800814255755E+00
              0.705173749145044E+00
             -0.435211498482796E+00
              0.978730329235947E+00
             -0.317078308219318E+00
              0.494539088082324E+00
              0.365691587461217E+00
             -0.856923467260455E+00
             -0.385522377138987E+00
              0.129091560668039E+00
             -0.576672927961736E+00
             -0.591142918570994E+00
             -0.126421272895760E+01
             -0.805328259877079E+00
             -0.714364079445971E+00
             -0.642270034054651E+00
              0.142099861503717E-01
              0.324211361689894E+00
              0.123156177450174E+00
              0.371091374523435E+00
             -0.841892667713672E+00
              0.178784027146497E+00
              0.363124597938328E+00
             -0.986089631169948E+00
             -0.831946747480385E+00
             -0.550637469951324E+00
             -0.437905596238256E+00
              0.227245759667689E+00
             -0.343773518513775E-01
             -0.625547897087143E+00
              0.432210832865813E+00
             -0.313658673336523E+00
              0.749905976107626E+00
             -0.125483694655697E+01
              0.885692872316434E+00
             -0.128043893495287E+00
             -0.616702009117149E+00
             -0.407854573320305E+00
             -0.139609322564431E-01
              0.687600020879670E+00
             -0.100807828374296E+01
             -0.190331723797906E+00
             -0.239983487900783E+00
              0.611073476907492E+00
              0.114406043302589E+01
             -0.141888989861912E+01
              0.132432227467280E+01
              0.583512049331072E+00
             -0.109438276107079E+01
             -0.463376166168865E+00
              0.112143090588037E+01
              0.826359681948086E+00
             -0.283353967952945E+00
             -0.998187194879643E-01
              0.243513802033423E+00
              0.109635883514977E+01
             -0.834586182657786E+00
              0.203335471718868E+00
             -0.104427240909493E+00
              0.400387268505292E+00
             -0.101198856353237E+01
             -0.514739869923311E-01
             -0.411028759757881E+00
              0.690103783315506E+00
              0.559312834484329E+00
             -0.126011606430623E+01
             -0.682482354818237E+00
             -0.305537690904126E+00
             -0.602939495223041E+00
             -0.193292195589039E+00
             -0.287433406054393E+00
              0.653083565867402E+00
              0.631956052010472E+00
             -0.501853199203679E-01
             -0.625200117257061E+00
             -0.121352300553484E+01
              0.706725729098403E+00
             -0.679404708466437E+00
             -0.507815769215055E+00
              0.103934989475369E+00
             -0.514148047858959E+00
             -0.583776032695914E+00
             -0.430673472306034E+00
             -0.698688944693745E+00
             -0.350386635517768E+00
             -0.719360475008181E+00
              0.808978135057061E+00
              0.873855523287806E+00
             -0.133375703474523E+00
             -0.307270807618157E+00
              0.340006532014172E-01
              0.598873207071543E+00
             -0.123731537791885E+01
             -0.339414845048275E+00
              0.730537591576539E+00
              0.985694407126799E+00
             -0.174788518956858E+00
              0.161214764476989E+00
              0.749038548471389E+00
              0.212468296449019E+00
             -0.101271045850941E-01
             -0.555072380660133E+00
              0.217951684529178E+00
             -0.477568162793003E+00
             -0.157358189613893E+00
             -0.297865568499755E+00
             -0.217653648893406E+00
              0.320746362991088E+00
              0.113877428742229E+01
             -0.846351640098897E-01
              0.333359794219787E-01
             -0.130948116918518E+01
             -0.257093892771593E+00
             -0.527383732788724E+00
              0.246503790194517E-01
             -0.650552945392168E+00
              0.125204731596566E+01
              0.124342785765102E+01
              0.266940949205345E+00
             -0.300428803980966E+00
              0.240705082028969E+00
              0.320713348597970E+00
             -0.657595430189267E+00
             -0.112489001110402E+00
              0.245296964347558E+00
              0.181100041513023E+00
              0.737542624915489E+00
              0.587927745633433E+00
             -0.307878701034467E+00
              0.343467402066093E+00
             -0.138760508411273E+01
             -0.519245416247951E-01
              0.128335862900759E+01
              0.246625440182689E+00
             -0.184235580456527E-01
              0.394259731317506E+00
             -0.340081596221238E+00
              0.128102520948622E+01
             -0.258187084623170E+00
              0.113847872886705E+01
              0.542621997678294E+00
             -0.622181250124981E+00
              0.469371882415741E+00
             -0.410097615028689E+00
             -0.963565461350258E+00
             -0.107568512442438E+00
             -0.789192395913016E+00
             -0.757041546914021E+00
             -0.291777934497341E-01
              0.508069380452728E+00
             -0.164839523200975E+00
             -0.466324367303235E+00
              0.979643518166426E-01
             -0.962284660509741E+00
             -0.656084428751977E-01
             -0.124127442637137E+01
              0.783512781322855E+00
             -0.665255324237297E-01
             -0.701241528681037E+00
             -0.259364145575570E+00
              0.242209445595067E+00
             -0.516119270217404E+00
             -0.643581817179737E+00
              0.127614423941078E+01
             -0.385422127750315E+00
             -0.584338415629889E+00
              0.430183098545645E+00
             -0.269360817582145E+00
              0.782885866504329E+00
             -0.496609059524111E-02
              0.637349748694018E-01
              0.153654910850604E+01
             -0.165799474509084E+00
             -0.542255043914841E+00
             -0.647161599031081E+00
             -0.763980149983292E+00
             -0.522992729658759E+00
              0.423983109836668E+00
              0.400733299566860E+00
              0.396360511563777E+00
              0.107363922590360E+01
              0.607757058710203E-01
              0.300943192443617E+00
             -0.866774720798515E+00
              0.180429553306549E-01
             -0.263757852245369E+00
             -0.385392612529513E+00
             -0.514995325927465E-01
              0.478582275505416E+00
              0.544801006397082E+00
             -0.291960767705042E-01
              0.163026137772391E+00
              0.406883364048435E+00
              0.520890163675708E+00
             -0.326768944936660E+00
             -0.145106727352867E+00
              0.166444020654639E-01
             -0.376472352277549E+00
             -0.788874630813101E-01
             -0.519970413952501E+00
              0.110443639229291E+01
              0.881850635803364E+00
             -0.231549330906258E+00
              0.207861442483446E+00
             -0.681993254628605E-01
             -0.414919005071287E+00
              0.521455928721158E+00
             -0.135610453486206E+00
              0.514064090046426E+00
             -0.703055084677843E+00
              0.252054794261855E+00
             -0.115400864362950E+00
             -0.780675227503052E+00
             -0.349952823603532E+00
              0.342273776589111E+00
             -0.138115526838615E+01
              0.550673457051762E+00
              0.677732909778638E+00
             -0.132396474665172E+00
             -0.956509787924902E-01
             -0.441526917629576E-01
              0.381410126784596E+00
             -0.479735043276482E+00
              0.453327277142531E+00
              0.456072679961769E+00
             -0.136283479284265E+01
             -0.511796701135657E+00
              0.339174152356689E+00
             -0.180235385995851E+00
              0.655997271127118E+00
             -0.878500285276345E+00
             -0.994524868297795E-01
             -0.575234754432969E+00
             -0.184368279218080E+01
              0.112879819205321E+01
             -0.864937778989083E+00
             -0.937777369291602E+00
              0.920615086307410E-01
              0.184641965136703E+01
              0.825284967209972E-01
             -0.428284755918183E+00
             -0.108491975597822E-01
             -0.728549888191727E-01
             -0.126254091622530E+01
             -0.813352932624258E+00
              0.121096038613502E+01
             -0.146860075614915E+00
             -0.529933025711356E+00
              0.720824953710695E+00
             -0.477993619793650E+00
              0.497500629996361E+00
              0.707866284441432E+00
             -0.800881173490121E+00
             -0.402374476698647E+00
             -0.460603045472149E+00
             -0.231476075046504E+00
             -0.292302752416694E+00
             -0.224882755692773E+00
              0.269677550632339E+00
             -0.497142302047242E+00
              0.404997137843045E+00
              0.806409295534829E+00
             -0.138092179269009E+00
             -0.277720926068929E+00
              0.208382398846736E+00
              0.789969820452632E+00
              0.770175717978545E+00
              0.106948807968104E+00
             -0.122718913148801E+00
             -0.134385631985957E+00
             -0.763670675170826E+00
              0.571478255451252E+00
             -0.364467759480609E+00
              0.302951507369535E+00
             -0.198310589778488E+00
              0.390405209020008E+00
              0.247240516914962E+00
             -0.117444546826561E+01
             -0.379995958854488E+00
             -0.112629812950770E+01
             -0.556986164189430E+00
              0.800648294831388E-01
             -0.272335980033942E+00
              0.486950316889263E+00
             -0.400346069856088E+00
              0.342614564716186E-01
              0.107055299086563E+00
              0.104642988201164E+01
              0.527244387860723E+00
             -0.442350710463429E+00
             -0.110098077434473E-01
              0.207453196064091E+00
              0.533778078067524E+00
             -0.103349595337487E-02
              0.794776859205435E+00
              0.403215452955962E+00
              0.129645120443035E+01
              0.632032676033594E-01
              0.918396871254718E+00
             -0.386712782226203E+00
             -0.569690592100798E+00
              0.673285433377604E-01
              0.135627023015262E+00
              0.361820156663335E+00
             -0.225262671651215E+00
             -0.180891372802474E+00
              0.330688759820761E+00
             -0.668332525807995E+00
             -0.825036219749467E+00
              0.112906273988399E+01
             -0.901803263085199E-01
             -0.559444611840710E+00
             -0.697221262919505E-01
             -0.208655100863087E+00
              0.580046292893492E+00
              0.524564042903840E+00
             -0.282306680674431E+00
             -0.162781897312683E-01
             -0.381922417615611E+00
             -0.500568113403970E+00
             -0.368174535313022E+00
             -0.140454968050845E+01
             -0.179883180571814E-01
             -0.944040422796015E+00
             -0.838582185794772E+00
             -0.562427635619678E+00
              0.302933958502833E+00
             -0.560024806918074E+00
              0.330039902309999E+00
             -0.898213915576594E+00
             -0.217729669227307E-02
             -0.607069930432388E+00
              0.915421855296823E-01
              0.119790713109518E+00
              0.468835411538893E+00
             -0.289230599589868E+00
             -0.267093706645231E+00
              0.431692473782142E+00
              0.859074511422756E+00
              0.459622607884784E+00
              0.156334328730345E+00
             -0.104587604499615E+01
             -0.208438047174500E+00
             -0.403696713561293E+00
             -0.894073108554405E+00
              0.618181849429748E+00
             -0.491922809466070E+00
             -0.103336246730900E+00
             -0.371430418369485E+00
             -0.144000836166601E+01
              0.794591214405939E+00
             -0.254917568890315E+00
              0.563448044167831E+00
             -0.106211153077316E+01
              0.932087524042189E+00
              0.733961772677043E-01
             -0.390356420334736E+00
              0.120753364167914E+00
             -0.314474935463407E+00
             -0.933869345175522E+00
              0.249847243231759E+00
              0.501674187577405E+00
             -0.137886853551272E-02
             -0.492335491120773E+00
             -0.202324899819929E+00
              0.280666148057897E+00
              0.508726825695188E+00
              0.898815921582369E+00
              0.332151200945528E+00
             -0.335234093569827E+00
              0.137749999070445E+01
              0.342953162760646E+00
              0.644048720598767E+00
             -0.225792284292889E+00
              0.427020754294702E+00
              0.310135939440884E+00
             -0.884827656630238E+00
             -0.315944831845993E+00
             -0.566759569984307E+00
             -0.547700493340678E+00
             -0.150826349092762E+00
             -0.155775146440712E+00
             -0.618466992705633E+00
             -0.160885084261445E+01
             -0.393265230989897E+00
              0.221269392141163E+00
              0.857671639553850E-01
              0.189105896302646E+00
              0.619698607419580E+00
              0.195268736871505E+00
              0.449844131788084E+00
             -0.633298687455361E+00
              0.629109936364944E+00
             -0.602186439131174E+00
             -0.994565379757677E+00
              0.277537969006543E+00
             -0.582361265620046E+00
             -0.588546208209842E+00
             -0.228749800213897E+01
             -0.116693397616242E+00
              0.119478172529667E+01
              0.600803710552593E+00
             -0.143460821592035E+00
             -0.151473697240705E+00
              0.560961524860393E+00
              0.924081333649070E+00
             -0.556575301836671E+00
             -0.183452672372915E+00
             -0.503545280290936E+00
             -0.492727914447570E+00
             -0.447493457153428E+00
              0.187186424954388E+00
              0.102119242762343E+01
             -0.941487059313094E+00
             -0.773424149996823E+00
              0.443070425821901E-01
             -0.195885061545602E+00
             -0.258233360346727E+00
             -0.130223495641873E+01
              0.860947939135288E+00
              0.299424930484574E+00
              0.114132009371171E+00
              0.749602412879781E+00
             -0.453228309806692E+00
              0.483891685535315E+00
              0.410351269326884E+00
              0.484670066214066E-01
             -0.116963785955702E+00
              0.140727481214482E+00
             -0.220139012450922E+00
              0.729172649762387E+00
             -0.599677760366390E+00
              0.644712588561587E+00
              0.134400630458492E+00
              0.221381846444492E+00
              0.296471576627219E+00
             -0.116395525091430E+01
              0.122895176470734E+00
             -0.941948056467943E+00
             -0.701940229814825E+00
             -0.697126012502683E+00
             -0.729517124616955E+00
              0.169668691526343E-01
              0.248607989285428E+00
              0.708077801341474E+00
              0.116772627903424E+00
              0.202432671699939E+00
             -0.100887488359191E+01
             -0.409739951507037E+00
              0.458948794175642E+00
             -0.275036159556270E-01
             -0.330316038673155E-01
             -0.131220090158775E+00
              0.526504541430167E+00
             -0.130747409065043E+01
              0.193818205025157E+00
              0.322568704159829E+00
              0.577830490682786E+00
              0.545551017912618E+00
             -0.817290083393617E+00
              0.196938801139806E+00
              0.875422042192404E-01
              0.982758979163263E-01
              0.529508715459572E-01
             -0.287475886068863E+00
             -0.592591256113536E+00
              0.244111360536957E+00
              0.848511435626283E+00
             -0.452511987937978E-01
              0.183342045154772E+00
              0.176595889996301E+00
             -0.424663340895096E+00
             -0.439567181750195E+00
             -0.173821647538042E+01
             -0.558024772028481E+00
             -0.803272043766395E+00
             -0.105239848058857E+00
             -0.960712397922131E+00
              0.109264888107138E+01
             -0.474450364250946E+00
             -0.775873494251362E+00
             -0.226055534364015E+01
              0.965291815727547E+00
              0.206175100797067E+00
              0.802669785974230E-01
             -0.870651058004158E+00
              0.650273204844778E-01
             -0.221970564656274E+00
             -0.449829861534186E+00
              0.120972135733695E+00
              0.457909727908376E+00
              0.835751145408941E-01
             -0.270007958835563E+00
              0.238038263984812E-01
              0.848012220755168E-02
              0.189585175911626E+00
             -0.944697844288618E+00
              0.103434973550772E+01
             -0.596089234918201E+00
             -0.374662413813506E+00
             -0.699618838685431E+00
             -0.151400611153069E+01
              0.838849468495848E-01
             -0.779918443443165E+00
             -0.287820958380031E+00
              0.452595705074461E+00
             -0.369551548682054E+00
             -0.125650435137228E+00
             -0.173370069170861E+00
             -0.324994179984865E+00
              0.417431270910260E-01
              0.738968493649258E+00
             -0.740636003362814E+00
              0.145296414811543E+01
             -0.330099826866840E+00
              0.478515397780698E+00
             -0.222374497258929E+00
              0.188159622226221E+00
             -0.179974924993919E+00
              0.649455398131025E+00
              0.915860900658220E+00
              0.261017538251925E+00
              0.690917015694566E+00
             -0.451257783194554E+00
             -0.846574307060250E-01
             -0.356818601106266E+00
              0.915896371260880E+00
              0.793028821951836E+00
              0.584504545265208E+00
             -0.192074928689435E+00
             -0.378301407210399E+00
              0.351042892733141E+00
             -0.396198091890601E+00
             -0.209762230443660E+00
             -0.930211214520621E-01
             -0.483465777614124E+00
              0.720256263578444E+00
             -0.139906309430000E+00
              0.527339200872956E+00
              0.283154300222985E+00
              0.231489112504419E+00
             -0.499271115855237E+00
              0.401073752607235E+00
             -0.209902142405074E+00
             -0.113342094793626E+00
             -0.179351741269906E-01
             -0.714783041059111E+00
              0.112338869827212E+01
             -0.405354209801423E+00
              0.618524838417400E-02
              0.335304451265212E+00
              0.282732226225582E+00
              0.108625220396639E+01
             -0.310906037152901E+00
              0.109246562527310E+01
              0.968212371399189E+00
             -0.136163914701101E+01
              0.115643210885787E+00
             -0.273032719468011E+00
              0.163595467563782E+00
              0.680109739128185E-01
              0.285076462273397E+00
              0.917509657765404E+00
              0.138485352855991E+01
             -0.107494715808076E+01
              0.110442101989476E+01
             -0.141347557103639E+01
             -0.119026293471049E+01
             -0.196480043380163E+00
              0.142954246992257E-01
              0.110430764999217E+01
              0.490843302461446E+00
             -0.222193181510096E+00
             -0.123214506146994E+01
              0.963394342784993E+00
             -0.601824426130705E+00
              0.917031789048117E-02
             -0.638014666711753E-01
              0.185328833251890E+01
             -0.344432997765121E+00
             -0.151077496102954E+01
              0.439814359507331E+00
             -0.232828636282319E+01
              0.183302038989537E+00
             -0.548099157209337E+00
             -0.244298776833975E+00
             -0.384779423126371E+00
             -0.852581086333504E+00
              0.545086652764150E+00
             -0.508663732553984E+00
             -0.180902101496633E+00
             -0.109281689628723E+01
             -0.707162336962650E-01
             -0.756117039615926E+00
             -0.109636762391585E+01
             -0.158538869301209E+01
              0.120475940457612E+00
             -0.501225378079568E+00
              0.895350170099478E-01
             -0.175751829548614E+00
             -0.117819749197665E+01
             -0.908163635531987E+00
             -0.804896489634991E+00
             -0.810178477630122E+00
              0.748284645008707E+00
              0.111610566320789E+00
             -0.701739227524684E+00
             -0.337926338346154E+00
             -0.383479978693705E+00
              0.574777213347153E+00
             -0.465131759741053E+00
             -0.993321229270787E-01
             -0.410198332761925E+00
             -0.570229166938380E+00
             -0.577983379571470E+00
              0.585528076928227E+00
             -0.193196874204997E+00
             -0.130303489032124E+01
              0.113328832534651E+01
              0.660135868943886E+00
              0.635141419548013E-01
             -0.113711350170485E+01
             -0.108371712139836E+01
              0.100084697809759E+00
              0.213844769523108E-01
             -0.470604670548449E+00
             -0.660516262871626E+00
              0.463202683965460E+00
             -0.818829529404939E-01
              0.382592064100812E+00
              0.685469393682212E+00
              0.513454773239814E+00
              0.380375487206370E+00
              0.319941752447061E+00
             -0.322393552617311E+00
             -0.205117085244363E+00
             -0.262006531767689E+00
             -0.540054198869835E+00
             -0.690833622890498E+00
             -0.886012447750979E+00
             -0.528096488684345E+00
             -0.172800113304274E+00
             -0.109673431954106E+01
             -0.213329583699899E+00
              0.476939526803274E+00
             -0.115360828621182E+01
              0.484746723860816E+00
              0.383656504935619E+00
             -0.102641309953227E+01
             -0.810647061624225E+00
             -0.306977226720542E+00
              0.207516301134053E+00
             -0.590658334769843E+00
              0.106435672730281E+01
              0.945174374564004E+00
             -0.110416049146286E+01
              0.645972465117422E+00
              0.524847708338156E+00
              0.131702490917466E+00
              0.295674872887753E+00
             -0.605678675155065E+00
             -0.219208539454914E+00
              0.744259451229681E-01
              0.282468734884745E+00
              0.610388499453344E+00
             -0.778964722730729E+00
             -0.129968712393594E+00
              0.242010559391146E+00
              0.817915474684958E-01
             -0.474538897503437E+00
              0.266742898114538E+00
             -0.374529059283677E+00
             -0.252045760211655E+00
              0.934327092992504E-02
             -0.885169167672593E+00
              0.100999816962828E-01
             -0.185193524200281E+00
             -0.212769080890681E+00
              0.166503967403216E+00
             -0.774998476943693E+00
              0.812786415552234E+00
             -0.321957667812542E+00
             -0.190539590116603E+01
             -0.123835560525285E+01
              0.510224960680726E+00
             -0.568412265325681E+00
             -0.303971745102668E+00
             -0.361363747753089E+00
             -0.259062844497314E+00
             -0.147381851374015E+01
             -0.540002519551450E-01
             -0.897445480283050E+00
             -0.456937598811670E+00
              0.325180335811864E+00
              0.110855374255673E+01
              0.445525640014762E-01
              0.290315187341945E-01
              0.857479878657517E+00
             -0.785108611188654E+00
              0.428148295970336E+00
              0.102787027150767E+00
             -0.720168202021138E+00
             -0.389943595115411E+00
              0.291280275936483E+00
              0.389162006981243E-01
              0.215696118326971E+00
              0.209272249229727E+00
             -0.337170939667288E+00
             -0.443903155123992E+00
             -0.719472662189395E+00
              0.701460212404018E+00
             -0.965044101470131E+00
             -0.705886995664649E+00
              0.204215032631972E+00
             -0.123145275602525E+01
              0.306728027393164E+00
              0.844454747005136E+00
             -0.148606607451356E+00
              0.245133689769351E+00
             -0.449920881427395E+00
             -0.313952865948921E+00
              0.151685633038269E+00
              0.516266689767344E+00
             -0.534938906739526E+00
              0.342517645567252E+00
             -0.201988388533614E+00
              0.480750140380319E-01
              0.289979237856572E+00
              0.179008447707985E+00
             -0.153456479726381E+00
             -0.101452659815227E-01
              0.215271292705451E+00
              0.393644458950267E+00
             -0.101402204983226E+01
              0.209432756814110E-02
              0.777739100487536E+00
             -0.130690456564267E+01
              0.474743358864216E+00
             -0.164913911315298E+01
             -0.150599682689335E+00
             -0.207459692258946E+00
             -0.532157873018733E-01
             -0.157531654714819E+00
             -0.404353969766517E+00
             -0.114549952399807E+00
              0.215673171110800E+00
             -0.334338821542312E+00
              0.160580533257906E+00
              0.128851935862928E+01
             -0.841564248585388E+00
             -0.370040671982818E+00
              0.579749526750668E+00
              0.311185955196987E+00
              0.589520246607224E+00
              0.256563816114351E+00
              0.294457849151842E+00
             -0.218332741281675E+00
             -0.715489694354798E+00
             -0.635647714603794E+00
             -0.449544184709894E+00
              0.627779539359077E-01
             -0.607122825857838E+00
             -0.169018682343565E+00
              0.922045088728547E-01
              0.345664210427579E+00
             -0.102590840226724E+00
              0.832894698176296E+00
             -0.885361261446932E+00
             -0.341962885139901E-01
             -0.107710281380120E+00
              0.443500072536635E+00
             -0.623474014411672E+00
             -0.403609887944802E+00
              0.248363574117610E+00
              0.687315448042393E+00
              0.105385376109629E+01
              0.462872262936300E+00
              0.647718282613501E+00
             -0.371415611170039E+00
              0.900399042418174E+00
              0.910614032157452E+00
             -0.540951314512004E-01
              0.481531685743555E+00
              0.553853347539647E+00
             -0.308389816444115E+00
              0.161606527355723E+00
              0.942793961657866E+00
             -0.324149451088338E+00
             -0.125828280934241E+00
             -0.901798185414115E+00
              0.343250517000468E+00
             -0.185152897925322E+00
              0.293987027170708E+00
              0.484414794110837E-01
             -0.568677736871831E+00
              0.662082061106922E+00
              0.572927481933138E+00
             -0.426489833821907E+00
              0.241407246856976E+00
             -0.837657870340717E+00
             -0.779545458307133E+00
              0.351492366095877E+00
             -0.982967689141651E+00
             -0.483372688896652E+00
              0.428629993570162E-01
              0.122116534788604E+01
             -0.315185518041170E+00
             -0.148152830151526E+00
             -0.265841374687701E+00
              0.161327731467666E+01
              0.266430283501280E+00
             -0.601943890498274E+00
              0.997067082944669E+00
              0.891838772711705E+00
              0.467683698544064E+00
              0.112837159785790E+01
              0.121582958884486E+01
             -0.822373227919685E-01
             -0.428867809465292E+00
             -0.389590759729748E+00
              0.384733139637504E+00
              0.554266356814223E+00
             -0.935596153016092E-01
             -0.333014334545231E+00
             -0.828839968282803E+00
             -0.334050593734684E+00
             -0.668648431448965E+00
              0.471036415330494E+00
              0.239742536276887E+00
              0.854679003422234E+00
              0.161426703976730E+00
             -0.338683604752569E+00
             -0.128214019658938E+00
              0.575794612794399E+00
              0.155781000011000E+00
              0.848273995746960E+00
              0.806971588183383E+00
             -0.147046658857225E+00
             -0.114195909163920E+00
             -0.142030890979687E+01
              0.719784707316561E+00
             -0.276434121640694E-01
              0.786190279592592E+00
             -0.345134444938086E+00
             -0.927722409805738E+00
              0.273552351042502E+00
              0.102993455158387E+01
             -0.363919834861780E+00
              0.971534702994662E+00
             -0.103250384738311E+01
             -0.362253077109011E+00
             -0.120622608457859E+01
              0.266260940637077E+00
              0.934180043321202E-01
              0.940537669548633E-01
             -0.885467716013878E+00
              0.130847112647939E+01
              0.770604036222125E+00
              0.928642844494645E-01
             -0.735282833770717E+00
              0.288764072815920E+00
             -0.297485416424610E+00
             -0.192218106982137E+00
             -0.371139839136717E+00
              0.256455869582626E+00
             -0.210312582836984E+00
             -0.264921436307028E+00
              0.324559922220384E+00
              0.335502640617876E+00
             -0.127613102876944E+01
              0.279305632149497E+00
              0.946543713236408E+00
              0.608925834754409E+00
             -0.198001354220883E+00
             -0.725810999049825E-02
             -0.525556526931169E+00
              0.809585130466186E+00
              0.158761100987658E+00
             -0.527662201049695E-01
             -0.841537810288768E-01
              0.156960419720623E+01
             -0.726393673029087E-01
              0.369444169505321E+00
              0.105080981168608E+01
              0.139157340652998E+01
              0.869157905726324E+00
              0.580379212023065E+00
             -0.894799585695889E+00
             -0.658641172296876E+00
              0.524135376181861E+00
              0.357879851889420E-01
              0.441962616649613E+00
              0.192520185191972E+00
              0.904826331834929E+00
             -0.113330118347115E+01
             -0.707309049259975E+00
             -0.147415701126643E+00
             -0.124905544006168E+01
              0.267447883789304E+00
              0.626139115071894E+00
              0.622532971391179E-01
             -0.300255931490837E+00
              0.302037637028878E+00
              0.195966007997372E+01
              0.440343588844251E+00
              0.250320151088853E+00
             -0.697408544830653E+00
             -0.865810850836468E+00
             -0.194033165232287E+00
              0.399407817702115E+00
             -0.827391380933653E-01
              0.345292084165179E+00
              0.501031158893438E+00
             -0.901778677807440E+00
              0.381675776656212E+00
              0.547994245896851E+00
              0.835901255785263E+00
             -0.139677637648337E+00
              0.567325999642119E-01
             -0.108183365528368E+00
             -0.663565341019437E+00
             -0.103589545299417E+01
              0.112115029569179E+01
             -0.138440412650246E+00
             -0.778031479251386E+00
              0.912996650882139E-01
             -0.419624638044388E+00
              0.123759641590517E+01
             -0.321012509832606E+00
             -0.528232027662252E+00
              0.504121574005412E+00
             -0.210093728206084E+00
              0.663746079411900E+00
             -0.139045863711766E-01
              0.135463180068174E+01
              0.730076125992786E+00
              0.127269785993970E+00
             -0.556319746780785E+00
              0.396529048304948E+00
             -0.779298704255828E+00
             -0.815939451882335E-01
              0.920891029068322E+00
             -0.362143304486123E+00
             -0.640109003407196E+00
             -0.320030005001895E+00
              0.747842965201748E+00
              0.186184802421975E+00
             -0.117772640649388E+01
              0.486523762343980E+00
              0.119110277631068E+00
              0.142139250016577E+00
             -0.701776347145126E+00
              0.131614028279390E+00
              0.502610915531718E+00
              0.687355631805927E+00
              0.911049641412896E+00
              0.482224330998586E+00
              0.114569560251038E+00
             -0.772614318069679E+00
             -0.605640532145301E+00
             -0.967190407465068E+00
             -0.175995168536558E+00
              0.484590879061409E+00
             -0.169868787156444E-01
              0.751860695196489E+00
             -0.450404343731553E+00
              0.254802138968259E+00
             -0.294410855060661E+00
             -0.383452274469642E+00
              0.836894974017712E+00
              0.854149498747718E-01
              0.872742212262275E+00
              0.682748340554102E-01
              0.299680079324126E+00
             -0.235383198585358E+00
              0.872556980771982E+00
             -0.206207328572782E+00
             -0.122067649614580E-01
             -0.111759250964754E+01
             -0.114177154080995E+00
              0.101150120930448E+01
              0.943971117995532E+00
              0.344254692416360E+00
             -0.217898317220206E+00
              0.550427363573465E-01
             -0.314307360341852E+00
             -0.229002846347726E+00
              0.126759922179637E+01
              0.899608916531260E-01
             -0.394603233735379E+00
             -0.153976476140858E+01
             -0.659900363062311E+00
             -0.536391259772055E+00
             -0.894348416832520E+00
             -0.840849244842773E+00
             -0.102750492983100E+01
             -0.641532616457504E+00
             -0.426134947793903E+00
             -0.681022177527612E+00
              0.635714224613674E+00
             -0.283863075426751E+00
             -0.128214211597491E+01
              0.592540954347899E+00
             -0.468121392780601E+00
             -0.114487281386260E+01
              0.144563120728792E+01
             -0.357489844758289E+00
              0.231311639884778E+00
              0.556878101806715E+00
              0.148264841996621E+00
              0.361693453176191E+00
              0.109515998479215E-01
              0.123063667065257E-01
             -0.174595914800038E+00
             -0.103688565419190E+01
              0.152302850967564E+00
             -0.175860284913567E+01
              0.100100445032707E+01
             -0.576720496196978E+00
             -0.244116661930323E+00
             -0.288251334409541E+00
              0.282575174895257E+00
             -0.240890062052657E+00
              0.416561532210593E+00
             -0.823494044557822E+00
              0.536738625164797E+00
              0.591888562691451E+00
              0.160298601584399E+00
              0.124750837367976E+00
              0.302855045082262E+00
              0.125184389549542E+00
              0.441573366717038E+00
             -0.801285949995081E-01
             -0.100993188785091E+01
              0.141851203034539E+00
             -0.476664295833993E+00
             -0.408134559371280E-01
              0.764907409247262E+00
             -0.115270374821842E+01
              0.196160199812727E-01
              0.404542958948815E-01
              0.130410187975633E+00
              0.446313632581564E+00
             -0.188971850199582E+00
              0.121185587312969E+01
              0.574413194940298E+00
             -0.220997416286767E+00
             -0.148827965147204E+00
              0.776388818952349E-01
              0.113515465437245E+01
             -0.722783460743880E+00
             -0.146007794789235E+01
              0.414273748425224E+00
             -0.103296401586746E+00
             -0.207756679400054E+00
              0.271396770926046E+00
              0.109177809999833E+01
              0.611398850849099E+00
             -0.254139133747602E+00
             -0.760287087732760E+00
             -0.161693825333945E+00
              0.395411564148132E+00
             -0.242911548048704E+00
             -0.108318474680897E+01
             -0.108489805605261E+00
             -0.138163245023641E+01
             -0.726351265815230E+00
              0.121699078574063E+01
             -0.744370703861254E+00
             -0.100653333849401E+01
             -0.765579496688775E+00
             -0.558682595905034E+00
              0.477696393938022E+00
              0.120972022416328E+01
             -0.115934048261570E+00
              0.382635914712510E+00
             -0.276373664860121E+00
             -0.969585982369563E+00
              0.734675705925120E+00
             -0.680163143229751E+00
              0.376008392326416E+00
              0.429645461300025E+00
             -0.202499231809709E+00
              0.562446731858901E+00
              0.573463757728311E+00
              0.168802699885860E+01
             -0.172091861379702E+00
             -0.762594905830767E+00
             -0.954583916790545E+00
             -0.261338759076298E+00
             -0.554544164899935E+00
              0.136705199540187E+01
             -0.645539250055731E+00
              0.142693443334205E+00
              0.536598351832174E-01
             -0.298279127320555E+00
             -0.120054520348522E+01
             -0.929485075762857E-01
              0.143194934991084E+01
              0.280515075270950E+00
              0.112769457259955E+00
             -0.811564552319302E+00
             -0.788081544281654E+00
             -0.234144112255865E+00
              0.654493107023805E+00
             -0.372895138247159E+00
              0.146050705931622E+01
             -0.651032383006494E+00
              0.270315771125280E+00
             -0.225833356241764E+00
             -0.888851033781333E+00
              0.881519672027000E-01
             -0.798530080186964E+00
             -0.105965878684816E+01
              0.139378362653747E+00
              0.215247672505474E-01
              0.704867795371751E+00
              0.371782334633834E+00
             -0.497598899296586E+00
              0.320630640355454E+00
             -0.123418064119380E+01
             -0.699921609476318E+00
              0.133456367271066E+01
              0.796321505399298E-01
             -0.106709201738864E+00
             -0.374180281401934E+00
             -0.782447053256519E-02
             -0.162554298686891E+00
              0.128314938063936E+01
              0.582027357086024E+00
             -0.149420444485369E+00
             -0.279718062344942E-01
             -0.558363954800609E+00
             -0.207451819017222E+00
             -0.912027756263396E+00
              0.734200461934205E+00
              0.961253215998918E-01
              0.130569042077964E+00
              0.248163615668423E+00
             -0.183428656386332E+00
             -0.315192369473307E+00
              0.810571726769485E-01
             -0.158264978017042E+01
             -0.163976711767994E+00
             -0.119975552591924E+00
             -0.950817765183509E-01
              0.730852597084836E+00
              0.910788940804806E+00
              0.250440744405486E+00
             -0.134135042214303E+01
              0.921392720624048E+00
             -0.342859247629296E+00
             -0.532882490179384E+00
             -0.125023043858733E+01
             -0.413373569995877E+00
              0.875321630561712E+00
              0.457411269160811E+00
              0.221180743327265E+00
              0.490033847577282E+00
             -0.809363086318866E+00
             -0.683669439862593E+00
              0.885199080288855E+00
              0.592083691435169E+00
              0.691108482196212E+00
              0.780922681504423E-01
              0.135653698059068E+00
              0.762666786897933E+00
              0.142134402268402E+01
             -0.278122952767223E+00
              0.563188134127342E+00
             -0.359442019229893E+00
             -0.626691604008914E+00
             -0.487228342859703E+00
             -0.458060772888547E+00
             -0.203519212988383E+00
             -0.692520282853416E+00
             -0.299134826472561E+00
             -0.187166074579775E+01
              0.455072922956679E+00
              0.392080130807943E+00
             -0.397713103811965E-01
             -0.540209945171163E+00
             -0.281231166864417E+00
             -0.794788428196130E+00
              0.976415888911681E-01
              0.114609698705516E+01
             -0.272811356912873E+00
             -0.264262036947311E+00
              0.262699601233219E+00
             -0.714142728578895E+00
              0.124451689421132E+01
              0.237787426437474E+00
              0.124860186957426E+00
              0.759253375986650E+00
             -0.548780021995166E-01
              0.846352674519692E+00
              0.276939507196170E+00
             -0.524453325460974E-01
              0.195180398772642E+00
             -0.115300598144159E+00
              0.991020340222519E+00
              0.990915711255393E-01
              0.282857238175080E+00
             -0.119144221084438E+00
              0.155295904730981E+00
             -0.135468015518871E+01
             -0.520692513939380E+00
             -0.701278193243159E+00
              0.744672705359120E+00
             -0.497463840594669E+00
             -0.828507851469179E+00
              0.849437409192014E+00
             -0.207750388017834E+00
              0.604699072736682E+00
             -0.128864878504233E+01
              0.288207804868908E+00
              0.694369885383592E-01
              0.817032059050256E-01
             -0.180996005292046E+00
             -0.820918260276953E-01
              0.722071789801201E+00
              0.376931066545696E-01
             -0.738012990368528E+00
             -0.296697272192669E+00
              0.288804861348863E+00
             -0.166459222326766E+01
             -0.127321732816541E+01
              0.190445420032646E-01
              0.212743699677872E+00
             -0.708786362476469E+00
             -0.204849107877170E-02
              0.150399185575786E+01
              0.444065177510470E+00
             -0.784415371778616E+00
              0.112498971123975E+00
             -0.145689944266955E+00
              0.178295570025904E+00
             -0.498765775570927E+00
              0.308276055381580E+00
              0.344080368687028E+00
             -0.128592613724328E+00
              0.161715783794317E+01
             -0.785437815284804E-01
             -0.450558362204166E+00
              0.419030212785263E+00
              0.613984367011103E+00
             -0.478907910856855E+00
             -0.149576616855915E-01
              0.140197530804535E+01
             -0.308772080832238E-01
              0.749823249158524E+00
              0.234986960361006E+00
             -0.118356637861879E+00
             -0.239493704341686E+00
              0.713962437891757E+00
             -0.845315374677873E+00
             -0.391040108958292E-01
             -0.276332634850214E+00
             -0.592230562072046E+00
              0.159768213796946E+00
              0.339031506018007E+00
             -0.192112386010468E-02
             -0.272357727768382E-01
             -0.580059264825839E+00
              0.229909382809900E+00
             -0.226750450752884E-01
             -0.330985685718862E+00
             -0.301703184673470E+00
              0.270472478800861E+00
             -0.113062268564335E-01
             -0.554061331767339E+00
             -0.153115175165036E+01
              0.843011545391752E-01
              0.248726397741267E+00
             -0.691738430352772E+00
             -0.356733752274693E+00
              0.117785875766155E+01
              0.161623915981542E+00
              0.607250047393572E+00
              0.140214802306394E+00
              0.564418525012034E+00
              0.356211686402581E-01
             -0.573799152658786E+00
             -0.135678849465715E+00
              0.837318657560857E-01
              0.431703002868948E+00
              0.110166923322489E+01
              0.710137898436332E+00
              0.365046998596830E-01
              0.156832711223361E+00
              0.868157438855382E+00
              0.399497091872922E+00
             -0.101787298277245E+01
             -0.398613601482470E+00
              0.175282652197534E+00
              0.146750208868826E+00
              0.366018646488802E+00
             -0.745562558012122E+00
              0.930109436775832E-01
              0.579310473563790E+00
              0.704052583894249E+00
             -0.616040083059640E+00
              0.116387153206094E-01
             -0.312856304678828E-01
             -0.292046874211954E+00
             -0.384681733249068E+00
             -0.182502877403262E+00
             -0.142626276518490E+00
              0.153164108939979E+00
              0.599848218360554E+00
             -0.464258218899717E+00
              0.116471351597285E+01
              0.485316272915846E+00
              0.368003353667499E+00
              0.521177238779085E+00
              0.377754891534198E+00
              0.481563017936702E+00
              0.799906720118183E+00
             -0.677826721431223E+00
              0.906459960807377E+00
             -0.161956247891495E+01
              0.459044931601070E+00
             -0.152491265544405E+01
              0.116665305385665E+01
              0.111729152463689E+01
             -0.126067989539010E+00
             -0.688815589606209E+00
             -0.614266484320637E+00
             -0.784643781682483E+00
             -0.931886852785467E+00
              0.783605320497208E+00
              0.623235520298650E+00
              0.352568233699564E+00
              0.392374382404879E+00
              0.620428747134113E+00
             -0.586072789030397E+00
             -0.220850030088948E+00
              0.772731423207560E+00
             -0.169912444615687E+00
              0.711497289584573E+00
              0.110257260922784E+01
             -0.403567249037196E-01
             -0.108058853742372E+01
              0.578492422538393E-01
              0.262616283466599E-01
             -0.148734579735272E+00
              0.516688768443072E-01
             -0.946693563640473E+00
             -0.159270211831918E+00
              0.178981746829568E+00
              0.179658366784388E+00
              0.709557591875004E+00
             -0.592407416591845E+00
              0.785566475883159E+00
             -0.553246313999729E+00
              0.369645774486232E+00
              0.625373006760396E+00
 
 BEEF-vdW xc energy contributions
           1 :   -10.2096449637295     
           2 :    8.50766639445026     
           3 :   -6.07755784759614     
           4 :    3.79935961360491     
           5 :   -2.05947255428987     
           6 :   0.917894268817465     
           7 :  -0.274991575780273     
           8 :  -3.871012645836203E-002
           9 :   0.186972174819125     
          10 :  -0.280727956391891     
          11 :   0.351121113893507     
          12 :  -0.375146364439159     
          13 :   0.334604028163769     
          14 :  -0.251450115616226     
          15 :   0.164978735010255     
          16 :  -0.104979132953160     
          17 :   7.956433539446373E-002
          18 :  -7.558955543717083E-002
          19 :   6.902671688108164E-002
          20 :  -4.533562278546022E-002
          21 :   7.952327347906518E-003
          22 :   2.525320463839975E-002
          23 :  -3.417405374406535E-002
          24 :   1.336357715189607E-002
          25 :   2.122137689035242E-002
          26 :  -5.228865547293182E-002
          27 :   7.466315191015482E-002
          28 :  -8.602389271453781E-002
          29 :   8.150232017996473E-002
          30 :  -6.619978040458108E-002
          31 :   -1.26073814891392     
          32 :  -0.782968550301106     

     Writing output data file ./pwscf.save/
 
     init_run     :     59.31s CPU     61.39s WALL (       1 calls)
     electrons    :    477.01s CPU    504.60s WALL (       1 calls)
     forces       :     22.80s CPU     24.68s WALL (       1 calls)

     Called by init_run:
     wfcinit      :      1.24s CPU      1.27s WALL (       1 calls)
     potinit      :     53.35s CPU     54.81s WALL (       1 calls)
     hinit0       :      3.24s CPU      3.33s WALL (       1 calls)

     Called by electrons:
     c_bands      :     59.55s CPU     59.60s WALL (      14 calls)
     sum_band     :     34.18s CPU     39.79s WALL (      14 calls)
     v_of_rho     :    308.43s CPU    325.17s WALL (      15 calls)
     newd         :     14.72s CPU     20.56s WALL (      15 calls)
     PAW_pot      :      1.27s CPU      1.27s WALL (      15 calls)
     mix_rho      :    110.47s CPU    111.61s WALL (      14 calls)
     vdW_kernel   :     33.53s CPU     33.53s WALL (       1 calls)

     Called by c_bands:
     init_us_2    :      0.86s CPU      0.86s WALL (      29 calls)
     regterg      :     58.06s CPU     58.11s WALL (      14 calls)

     Called by *egterg:
     rdiaghg      :      0.01s CPU      0.02s WALL (     106 calls)
     h_psi        :     54.61s CPU     54.61s WALL (     107 calls)
     s_psi        :      0.60s CPU      0.60s WALL (     107 calls)
     g_psi        :      0.15s CPU      0.15s WALL (      92 calls)

     Called by h_psi:
     h_psi:calbec :      0.61s CPU      0.61s WALL (     107 calls)
     vloc_psi     :     53.15s CPU     53.15s WALL (     107 calls)
     add_vuspsi   :      0.62s CPU      0.62s WALL (     107 calls)

     General routines
     calbec       :      0.75s CPU      0.75s WALL (     125 calls)
     fft          :    273.22s CPU    273.23s WALL (    2814 calls)
     ffts         :     52.17s CPU     52.18s WALL (     539 calls)
     fftw         :     52.51s CPU     52.51s WALL (     542 calls)
 
     Parallel routines
 
     PWSCF        :  19m14.38s CPU  20m30.89s WALL

 
   This run was terminated on:   9:37:45  21Dec2022            

=------------------------------------------------------------------------------=
   JOB DONE.
=------------------------------------------------------------------------------=
