
     Program PWSCF v.6.7MaX starts on 20Dec2022 at 16:22:33 

     This program is part of the open-source Quantum ESPRESSO suite
     for quantum simulation of materials; please cite
         "P. Giannozzi et al., J. Phys.:Condens. Matter 21 395502 (2009);
         "P. Giannozzi et al., J. Phys.:Condens. Matter 29 465901 (2017);
          URL http://www.quantum-espresso.org", 
     in publications or presentations arising from this work. More details at
     http://www.quantum-espresso.org/quote

     Parallel version (MPI), running on     1 processors

     MPI processes distributed on     1 nodes
     Reading input from coh-gas-ensemble.in
Warning: card &CELL ignored
Warning: card / ignored

     Current dimensions of program PWSCF are:
     Max number of different atomic species (ntypx) = 10
     Max number of k-points (npk) =  40000
     Max angular momentum in pseudopotentials (lmaxx) =  3
     file C.pbe-n-kjpaw_psl.1.0.0.UPF: wavefunction(s)  2S 2P renormalized
     file O.pbe-nl-kjpaw_psl.1.0.0.UPF: wavefunction(s)  2S 2P renormalized
     file H.pbe-kjpaw_psl.1.0.0.UPF: wavefunction(s)  1S renormalized

     **************************************************************************
     Initializing libbeef V0.1.2 with the BEEF-vdW functional.
     Citation: Wellendorff et al., PRB 85, 235149 (2012).
     **************************************************************************


     IMPORTANT: XC functional enforced from input :
     Exchange-correlation= BEEF-VDW
                           (   1   4  43  14   2   0   0)
     Any further DFT definition will be discarded
     Please, verify this is what you really want


     gamma-point specific algorithms are used

     Subspace diagonalization in iterative solution of the eigenvalue problem:
     a serial algorithm will be used

 
     G-vector sticks info
     --------------------
     sticks:   dense  smooth     PW     G-vecs:    dense   smooth      PW
     Sum       28983   28983   7231              3907329  3907329  488379
 


     bravais-lattice index     =            0
     lattice parameter (alat)  =      39.2846  a.u.
     unit-cell volume          =   62234.9313 (a.u.)^3
     number of atoms/cell      =            3
     number of atomic types    =            3
     number of electrons       =        11.00
     number of Kohn-Sham states=           10
     kinetic-energy cutoff     =      60.0000  Ry
     charge density cutoff     =     240.0000  Ry
     scf convergence threshold =      1.0E-06
     mixing beta               =       0.7000
     number of iterations used =            8  local-TF  mixing
     Exchange-correlation= BEEF-VDW
                           (   1   4  43  14   2   0   0)

     celldm(1)=  39.284610  celldm(2)=   0.000000  celldm(3)=   0.000000
     celldm(4)=   0.000000  celldm(5)=   0.000000  celldm(6)=   0.000000

     crystal axes: (cart. coord. in units of alat)
               a(1) = (   1.000000   0.000000   0.000000 )  
               a(2) = (   0.000000   0.983971   0.000000 )  
               a(3) = (   0.000000   0.000000   1.043241 )  

     reciprocal axes: (cart. coord. in units 2 pi/alat)
               b(1) = (  1.000000  0.000000  0.000000 )  
               b(2) = (  0.000000  1.016290  0.000000 )  
               b(3) = (  0.000000  0.000000  0.958552 )  


     PseudoPot. # 1 for C  read from file:
     /users/bkreitz1/quantum-espresso/potentials/C.pbe-n-kjpaw_psl.1.0.0.UPF
     MD5 check sum: a169b0ebad56f5ec0d79c4633f80bf22
     Pseudo is Projector augmented-wave + core cor, Zval =  4.0
     Generated using 'atomic' code by A. Dal Corso  v.6.7MaX
     Shape of augmentation charge: PSQ
     Using radial grid of 1073 points,  4 beta functions with: 
                l(1) =   0
                l(2) =   0
                l(3) =   1
                l(4) =   1
     Q(r) pseudized with 0 coefficients 


     PseudoPot. # 2 for O  read from file:
     /users/bkreitz1/quantum-espresso/potentials/O.pbe-nl-kjpaw_psl.1.0.0.UPF
     MD5 check sum: eef08af8b58d9ec80f8fdb78829eb7cf
     Pseudo is Projector augmented-wave + core cor, Zval =  6.0
     Generated using 'atomic' code by A. Dal Corso  v.6.7MaX
     Shape of augmentation charge: PSQ
     Using radial grid of 1095 points,  4 beta functions with: 
                l(1) =   0
                l(2) =   0
                l(3) =   1
                l(4) =   1
     Q(r) pseudized with 0 coefficients 


     PseudoPot. # 3 for H  read from file:
     /users/bkreitz1/quantum-espresso/potentials/H.pbe-kjpaw_psl.1.0.0.UPF
     MD5 check sum: ae98473e6dc62675f0d0baffdab24f65
     Pseudo is Projector augmented-wave, Zval =  1.0
     Generated using 'atomic' code by A. Dal Corso  v.6.7MaX
     Shape of augmentation charge: PSQ
     Using radial grid of  929 points,  2 beta functions with: 
                l(1) =   0
                l(2) =   0
     Q(r) pseudized with 0 coefficients 


     atomic species   valence    mass     pseudopotential
        C              4.00    12.01100     C ( 1.00)
        O              6.00    15.99900     O ( 1.00)
        H              1.00     1.00800     H ( 1.00)

     No symmetry found



   Cartesian axes

     site n.     atom                  positions (alat units)
         1           C   tau(   1) = (   0.4802716   0.4808325   0.4817577  )
         2           O   tau(   2) = (   0.4819315   0.4814189   0.5423920  )
         3           H   tau(   3) = (   0.5195887   0.5031932   0.5650660  )

     number of k points=     1  Gaussian smearing, width (Ry)=  0.0050
                       cart. coord. in units 2pi/alat
        k(    1) = (   0.0000000   0.0000000   0.0000000), wk =   2.0000000

     Dense  grid:  1953665 G-vectors     FFT dimensions: ( 200, 192, 216)

     Estimated max dynamical RAM per process >       2.86 GB

     Initial potential from superposition of free atoms

     starting charge   10.99995, renormalised to   11.00000

     negative rho (up, down):  1.494E-02 0.000E+00


     %%%%%%%%%%%%%%%%%%%%%%%%%%%%%%%%%%%%%%%%%%%%%%%%%%%%%%%%%%%%%%%%%%%%%%%%
     %                                                                      %
     % You are using vdW-DF, which was implemented by the Thonhauser group. %
     % Please cite the following two papers that made this development      %
     % possible and the two reviews that describe the various versions:     %
     %                                                                      %
     %   T. Thonhauser et al., PRL 115, 136402 (2015).                      %
     %   T. Thonhauser et al., PRB 76, 125112 (2007).                       %
     %   K. Berland et al., Rep. Prog. Phys. 78, 066501 (2015).             %
     %   D.C. Langreth et al., J. Phys.: Condens. Matter 21, 084203 (2009). %
     %                                                                      %
     %                                                                      %
     % If you are calculating the stress with vdW-DF, please also cite:     %
     %                                                                      %
     %   R. Sabatini et al., J. Phys.: Condens. Matter 24, 424209 (2012).   %
     %                                                                      %
     %%%%%%%%%%%%%%%%%%%%%%%%%%%%%%%%%%%%%%%%%%%%%%%%%%%%%%%%%%%%%%%%%%%%%%%%


     Starting wfcs are    9 randomized atomic wfcs +    1 random wfcs
     Checking if some PAW data can be deallocated... 

     total cpu time spent up to now is       73.9 secs

     Self-consistent Calculation

     iteration #  1     ecut=    60.00 Ry     beta= 0.70
     Davidson diagonalization with overlap
     ethr =  1.00E-02,  avg # of iterations =  6.0

     negative rho (up, down):  1.390E-02 0.000E+00

     total cpu time spent up to now is      112.0 secs

     total energy              =     -62.34618504 Ry
     estimated scf accuracy    <       0.28471000 Ry

     iteration #  2     ecut=    60.00 Ry     beta= 0.70
     Davidson diagonalization with overlap
     ethr =  2.59E-03,  avg # of iterations =  1.0

     negative rho (up, down):  1.684E-02 0.000E+00

     total cpu time spent up to now is      147.5 secs

     total energy              =     -62.36370064 Ry
     estimated scf accuracy    <       0.04552755 Ry

     iteration #  3     ecut=    60.00 Ry     beta= 0.70
     Davidson diagonalization with overlap
     ethr =  4.14E-04,  avg # of iterations =  5.0

     negative rho (up, down):  2.391E-02 0.000E+00

     total cpu time spent up to now is      185.3 secs

     total energy              =     -62.36574820 Ry
     estimated scf accuracy    <       0.01029602 Ry

     iteration #  4     ecut=    60.00 Ry     beta= 0.70
     Davidson diagonalization with overlap
     ethr =  9.36E-05,  avg # of iterations = 11.0

     negative rho (up, down):  3.096E-02 0.000E+00

     total cpu time spent up to now is      224.7 secs

     total energy              =     -62.36682855 Ry
     estimated scf accuracy    <       0.00251017 Ry

     iteration #  5     ecut=    60.00 Ry     beta= 0.70
     Davidson diagonalization with overlap
     ethr =  2.28E-05,  avg # of iterations =  6.0

     negative rho (up, down):  3.317E-02 0.000E+00

     total cpu time spent up to now is      262.4 secs

     total energy              =     -62.36679808 Ry
     estimated scf accuracy    <       0.00116047 Ry

     iteration #  6     ecut=    60.00 Ry     beta= 0.70
     Davidson diagonalization with overlap
     ethr =  1.05E-05,  avg # of iterations = 11.0

     negative rho (up, down):  3.748E-02 0.000E+00

     total cpu time spent up to now is      301.9 secs

     total energy              =     -62.36695998 Ry
     estimated scf accuracy    <       0.00053384 Ry

     iteration #  7     ecut=    60.00 Ry     beta= 0.70
     Davidson diagonalization with overlap
     ethr =  4.85E-06,  avg # of iterations = 12.0

     negative rho (up, down):  3.832E-02 0.000E+00

     total cpu time spent up to now is      341.8 secs

     total energy              =     -62.36704584 Ry
     estimated scf accuracy    <       0.00018794 Ry

     iteration #  8     ecut=    60.00 Ry     beta= 0.70
     Davidson diagonalization with overlap
     ethr =  1.71E-06,  avg # of iterations =  8.0

     negative rho (up, down):  3.069E-02 0.000E+00

     total cpu time spent up to now is      380.0 secs

     total energy              =     -62.36700218 Ry
     estimated scf accuracy    <       0.00008476 Ry

     iteration #  9     ecut=    60.00 Ry     beta= 0.70
     Davidson diagonalization with overlap
     ethr =  7.71E-07,  avg # of iterations = 11.0

     negative rho (up, down):  2.368E-02 0.000E+00

     total cpu time spent up to now is      419.2 secs

     total energy              =     -62.36697932 Ry
     estimated scf accuracy    <       0.00003270 Ry

     iteration # 10     ecut=    60.00 Ry     beta= 0.70
     Davidson diagonalization with overlap
     ethr =  2.97E-07,  avg # of iterations =  6.0

     negative rho (up, down):  2.151E-02 0.000E+00

     total cpu time spent up to now is      456.9 secs

     total energy              =     -62.36699845 Ry
     estimated scf accuracy    <       0.00001557 Ry

     iteration # 11     ecut=    60.00 Ry     beta= 0.70
     Davidson diagonalization with overlap
     ethr =  1.42E-07,  avg # of iterations =  2.0

     negative rho (up, down):  1.961E-02 0.000E+00

     total cpu time spent up to now is      492.8 secs

     total energy              =     -62.36701576 Ry
     estimated scf accuracy    <       0.00000466 Ry

     iteration # 12     ecut=    60.00 Ry     beta= 0.70
     Davidson diagonalization with overlap
     ethr =  4.24E-08,  avg # of iterations =  7.0

     negative rho (up, down):  1.880E-02 0.000E+00

     total cpu time spent up to now is      529.8 secs

     total energy              =     -62.36702048 Ry
     estimated scf accuracy    <       0.00000139 Ry

     iteration # 13     ecut=    60.00 Ry     beta= 0.70
     Davidson diagonalization with overlap
     ethr =  1.26E-08,  avg # of iterations =  2.0

     negative rho (up, down):  1.834E-02 0.000E+00

     total cpu time spent up to now is      557.3 secs

     End of self-consistent calculation

          k = 0.0000 0.0000 0.0000 (244190 PWs)   bands (ev):

   -29.1788 -17.6083 -12.5189 -11.5415  -8.8222  -3.6696  -2.8760  -1.8089
    -0.3694  -0.1378

     the Fermi energy is    -3.6696 ev

!    total energy              =     -62.36702275 Ry

     total all-electron energy =      -228.978011 Ry
     estimated scf accuracy    <       0.00000045 Ry
     smearing contrib. (-TS)   =      -0.00282095 Ry
     internal energy E=F+TS    =     -62.36420180 Ry

     The total energy is F=E-TS. E is the sum of the following terms:
     one-electron contribution =    -108.47453185 Ry
     hartree contribution      =      55.85190097 Ry
     xc contribution           =     -12.90370592 Ry
     ewald contribution        =      19.87553734 Ry
     one-center paw contrib.   =     -16.71340234 Ry

     convergence has been achieved in  13 iterations

     negative rho (up, down):  1.834E-02 0.000E+00

     Forces acting on atoms (cartesian axes, Ry/au):

     atom    1 type  1   force =     0.00112154    0.00071320    0.00255469
     atom    2 type  2   force =     0.00202304    0.00104244    0.00003108
     atom    3 type  3   force =    -0.00314458   -0.00175564   -0.00258577

     Total force =     0.005756     Total SCF correction =     0.000658
     SCF correction compared to forces is large: reduce conv_thr to get better values

     negative rho (up, down):  1.834E-02 0.000E+00

     negative rho (up, down):  1.834E-02 0.000E+00

     negative rho (up, down):  1.834E-02 0.000E+00

     negative rho (up, down):  1.834E-02 0.000E+00

     negative rho (up, down):  1.834E-02 0.000E+00

     negative rho (up, down):  1.834E-02 0.000E+00

     negative rho (up, down):  1.834E-02 0.000E+00

     negative rho (up, down):  1.834E-02 0.000E+00

     negative rho (up, down):  1.834E-02 0.000E+00

     negative rho (up, down):  1.834E-02 0.000E+00

     negative rho (up, down):  1.834E-02 0.000E+00

     negative rho (up, down):  1.834E-02 0.000E+00

     negative rho (up, down):  1.834E-02 0.000E+00

     negative rho (up, down):  1.834E-02 0.000E+00

     negative rho (up, down):  1.834E-02 0.000E+00

     negative rho (up, down):  1.834E-02 0.000E+00

     negative rho (up, down):  1.834E-02 0.000E+00

     negative rho (up, down):  1.834E-02 0.000E+00

     negative rho (up, down):  1.834E-02 0.000E+00

     negative rho (up, down):  1.834E-02 0.000E+00

     negative rho (up, down):  1.834E-02 0.000E+00

     negative rho (up, down):  1.834E-02 0.000E+00

     negative rho (up, down):  1.834E-02 0.000E+00

     negative rho (up, down):  1.834E-02 0.000E+00

     negative rho (up, down):  1.834E-02 0.000E+00

     negative rho (up, down):  1.834E-02 0.000E+00

     negative rho (up, down):  1.834E-02 0.000E+00

     negative rho (up, down):  1.834E-02 0.000E+00

     negative rho (up, down):  1.834E-02 0.000E+00

     negative rho (up, down):  1.834E-02 0.000E+00

     negative rho (up, down):  1.834E-02 0.000E+00

     negative rho (up, down):  1.834E-02 0.000E+00

     negative rho (up, down):  1.834E-02 0.000E+00

     negative rho (up, down):  1.834E-02 0.000E+00
 BEEFens 2000 ensemble energies
             -0.963648815247659E+00
             -0.350616385740432E-01
             -0.200189863836846E+00
              0.665048065386778E+00
             -0.314824709855259E+00
             -0.238668720786610E+00
             -0.713504099376586E+00
             -0.146422372365004E+01
             -0.533891318549104E+00
             -0.577904783193278E+00
             -0.537946273953135E+00
              0.815828633064581E-01
              0.456063773067847E-01
             -0.611947547137150E-01
              0.621185210201634E-01
              0.702208827787379E+00
             -0.310271868000477E+00
             -0.164384891473125E+00
              0.346550082973772E+00
             -0.166432139336874E+01
              0.850150693812624E+00
             -0.286715242836259E+00
             -0.975655151869455E-01
             -0.139277393868881E+00
              0.319510782146715E-01
             -0.934650894408673E-01
              0.132987135433300E+01
             -0.322911022191351E+00
             -0.130616721728547E+00
             -0.840479843897140E+00
              0.105184264653451E+01
             -0.806328022134628E-01
             -0.630814211626181E+00
              0.283673022932964E+00
             -0.452274734246960E-01
              0.419239348741469E+00
              0.228051834726504E-01
              0.530298117931771E-02
              0.539747617150794E+00
             -0.151769576493911E+01
              0.822757893233102E+00
              0.173017986830289E+00
             -0.173645483417422E+00
             -0.457170653336916E+00
              0.176903979095670E+00
             -0.260073453374147E+00
              0.760073770107747E+00
              0.535050889858638E+00
             -0.295030211772591E+00
             -0.482162296177705E+00
             -0.450316885871434E+00
             -0.552384785329223E+00
              0.311023826141262E+00
             -0.797192107886504E+00
              0.242570384648468E+00
              0.914648909975670E+00
              0.112051388361659E+01
              0.482718570957733E+00
              0.264185885702202E+00
              0.474776183872690E+00
              0.136298136012524E+01
              0.270564093686341E+00
             -0.834270948467550E+00
             -0.148509389199400E+00
             -0.441341376163965E+00
              0.941643029984594E+00
             -0.110701948804424E+01
             -0.880856336091201E+00
             -0.489871263313920E+00
             -0.266488125347575E+00
             -0.603791290007225E+00
              0.415762265073415E+00
              0.202326900167634E+00
              0.240401198693102E+00
             -0.569020223226372E+00
             -0.534620229089418E+00
             -0.875220620566386E+00
              0.488070841846444E+00
             -0.512024619893377E+00
              0.460410431059399E+00
             -0.110220825403663E+00
             -0.432177988838798E+00
             -0.780594620146013E+00
             -0.226964875422545E+00
             -0.255276611223982E+00
             -0.240605099476515E+00
              0.579390828986562E+00
              0.115069343663305E+01
             -0.685411034396950E+00
             -0.120717687410320E+01
             -0.275548653196774E+00
              0.165144144499283E+01
             -0.828287363623791E+00
              0.460982119797489E+00
             -0.171836416494867E+00
             -0.902774167568736E+00
              0.419929271226482E+00
              0.469721888355795E+00
             -0.211838946038210E+00
              0.425787933128499E+00
             -0.380207151605584E+00
             -0.907508673236705E+00
              0.149912361070584E+01
              0.689631967779581E+00
              0.329948652385179E+00
              0.192953675278063E+00
              0.336921962323661E+00
              0.122341447796922E+01
             -0.399050833471691E+00
              0.339191419910863E-01
             -0.208845267786048E+01
              0.282386045119075E+00
             -0.997782425188453E+00
              0.184206722728534E+00
              0.323301890632860E+00
             -0.549730522570956E+00
             -0.756569212308873E+00
              0.466234847098974E-01
             -0.455343516735725E+00
              0.663747430858841E+00
             -0.674904978860870E+00
             -0.122497623671349E+00
             -0.578286294798898E+00
             -0.540500775716852E-01
              0.559684455136664E-01
              0.320320982265845E+00
             -0.724019317804014E-02
             -0.996035645792936E-01
              0.989448337543226E+00
              0.138011494132259E+01
              0.737736301008424E+00
              0.998162329017888E+00
             -0.207622223769642E+00
              0.129052378066844E+00
              0.781960642760233E+00
              0.588665404423874E-01
             -0.114460388617384E+01
             -0.646952907826495E+00
             -0.725078770802971E+00
             -0.443900655903415E+00
              0.371152436111233E+00
             -0.182952770869358E+01
             -0.179314176646186E+00
              0.694793523890177E+00
             -0.607733378286960E+00
             -0.441090005486881E+00
              0.850140702004971E+00
              0.745613428110339E+00
             -0.421446510579042E+00
              0.473221959692770E+00
             -0.368356581210007E+00
              0.571772516765518E+00
              0.118456412559097E+00
              0.166597328072504E+00
             -0.123438525467855E+01
             -0.727126654603831E+00
             -0.130199716951870E+00
             -0.429786944985879E-01
             -0.640267821427834E+00
              0.165980050447926E+01
             -0.178442945161878E+00
             -0.398704892491496E+00
              0.599859314597277E+00
             -0.677150292180586E+00
             -0.555128927820577E+00
              0.481625078783258E+00
              0.173938357391802E+00
              0.148739618152739E+00
              0.229212818412773E+00
             -0.158300677790922E+00
              0.152038021679131E+00
              0.884496280203955E+00
             -0.416700568036571E+00
              0.330232439588086E+00
              0.133116813293916E+01
              0.466058466071598E+00
             -0.675031981022016E-01
             -0.300378974769898E+00
              0.233024805918518E+01
             -0.366527877350958E+00
              0.581493490808755E+00
              0.456656851168284E+00
              0.431742895053524E+00
              0.140623260784831E+01
              0.689251774640734E+00
             -0.863430764358636E-01
              0.369529582383885E+00
              0.774707561522982E+00
              0.585380683209507E+00
             -0.922004631814543E+00
              0.141520001123360E+01
             -0.129158669122875E+01
             -0.172782954648343E+00
              0.849362106401427E+00
              0.235837459424978E+00
              0.793195740224544E-01
              0.424070833532651E+00
              0.229862255675296E+00
              0.491603659824654E+00
             -0.941835131518950E+00
              0.580979265304613E-01
             -0.345025276218959E+00
             -0.998377966099200E-01
             -0.396517406623413E-01
             -0.186105819897184E+00
             -0.973052627631690E-01
              0.124792960171588E+01
             -0.755636206598127E-01
             -0.438935802984206E+00
             -0.194344732808189E-01
              0.208450585042049E+00
             -0.965062249378284E+00
             -0.813443563530031E+00
             -0.508007955885787E+00
             -0.940795031562291E+00
             -0.283958690305454E+00
             -0.602508979227676E+00
              0.283704805352238E+00
              0.249602309489543E-01
             -0.194069727964263E+00
             -0.123013813870829E+00
              0.758127530470927E-01
             -0.222784527515081E+00
              0.965946135257623E+00
             -0.131003583145640E+01
             -0.198621226416804E+00
             -0.211558530754184E+00
              0.234139040061986E+00
              0.302478022868465E+00
             -0.767115525033393E+00
             -0.187433232799500E+00
              0.668328014689186E+00
             -0.297622292736964E+00
              0.190603287467650E+00
              0.514754425248139E+00
             -0.669468949151053E-02
              0.173459253654207E+01
             -0.179348548006666E+00
             -0.524808068342099E+00
              0.109895847473247E-01
             -0.416093852097228E+00
              0.814657123209496E+00
             -0.715038722032674E+00
              0.199728739196630E+00
              0.764344884885549E+00
             -0.201014087821728E+00
              0.176639343787639E+01
              0.191932995243373E+01
             -0.106157266419569E+01
              0.856349693224122E+00
              0.342257184331944E+00
             -0.841374948042110E+00
              0.274667324345501E+00
              0.626519544557860E+00
              0.695540087215382E+00
              0.772363352121888E-01
              0.251483133114659E+00
              0.111342175792115E+01
             -0.343277393354708E+00
              0.134425564172947E+00
              0.102883695258396E+01
             -0.549277716327386E+00
             -0.350986638459571E+00
              0.881433062608567E+00
              0.457862363728787E+00
              0.116261524272793E+01
              0.503564049020464E+00
              0.194169007730516E+00
              0.373573905248771E+00
              0.637841946534616E+00
             -0.767152321161615E+00
              0.102682511353550E+00
              0.393416483488250E+00
              0.157735127046205E+00
              0.358705991794991E+00
             -0.926589464624208E+00
              0.487999408555416E+00
             -0.652953812033467E+00
             -0.456962716054241E+00
              0.276223320177010E+00
             -0.136016809406949E+00
              0.887796493133481E+00
             -0.233448987900919E+00
              0.436913319619681E+00
              0.444619811690075E+00
              0.115853221154149E+01
              0.786587920519642E+00
              0.771083413991662E+00
             -0.661542549496099E-01
             -0.163174745000479E+00
             -0.442083520335974E+00
              0.122317023709837E+01
              0.124220009749605E+01
              0.588090804576258E+00
             -0.423302011535346E+00
              0.742505372035071E+00
             -0.791627929716032E-02
              0.272685937318594E+00
              0.103781047240015E+01
             -0.404385245831707E-01
             -0.152356884427121E+00
             -0.324177471792272E+00
             -0.902424934729477E+00
              0.144868043619031E+01
              0.752960162471973E+00
             -0.963962740086445E+00
             -0.326534572522230E+00
              0.387947505412484E+00
             -0.168333049528475E+00
              0.987977825085733E+00
              0.232662439739105E+00
              0.121991621787908E+01
              0.444180338532129E+00
             -0.368092582297673E+00
              0.285170733429211E+00
             -0.105431980019410E+00
             -0.393896891653845E+00
              0.265158400974171E+00
              0.251772565098948E+00
              0.133683468956243E+01
              0.114826945707621E+01
              0.850527144427605E+00
              0.101923374450996E+01
              0.961859493003208E-01
             -0.385719826939793E+00
              0.197350375070231E+00
             -0.504488229112725E+00
             -0.840610688127211E+00
             -0.862230869865863E+00
             -0.480348743100274E+00
             -0.162808326852219E+01
             -0.550506842419721E+00
             -0.129988555354793E+01
              0.302813313750767E+00
             -0.678790600146035E+00
              0.754922754232904E+00
             -0.146901059190569E+01
             -0.443678032785969E+00
              0.602628095657273E+00
              0.331165931523146E+00
             -0.135393495422824E+01
              0.811719285454601E+00
             -0.422276513011538E+00
              0.833299798968344E+00
             -0.433519054001182E+00
             -0.118576668146963E+01
              0.273369839385214E+00
             -0.993771629438442E+00
             -0.687987726443318E-01
             -0.103699003538559E-01
              0.637111110213379E+00
              0.188608737827368E+01
             -0.654757086927026E+00
             -0.568006355859662E+00
             -0.950029365888811E-01
             -0.129573534508670E+00
             -0.120297186928816E+01
             -0.857189613445525E+00
              0.757681528257014E+00
             -0.283422404858988E+00
              0.319878698203123E+00
             -0.743815227246714E+00
             -0.233785641873022E+00
             -0.627343674702583E+00
              0.723308066458316E+00
              0.210441783321139E+00
             -0.363807122095840E+00
             -0.256775692973079E+00
              0.195524573491539E+00
             -0.123080010007214E+00
              0.609550159296339E+00
             -0.403465957981736E+00
              0.149033744069159E+00
              0.499520960484023E+00
              0.203772925226136E+00
             -0.344392337376732E+00
              0.233521625995528E+01
              0.877381237125069E+00
              0.146449763885619E+00
              0.952523469509039E-01
             -0.907250414485742E+00
              0.491568583064382E+00
             -0.117093040128254E+01
             -0.509861448951700E+00
             -0.899779072215512E+00
             -0.264374953613011E+00
              0.876849096548240E+00
             -0.873255661625479E+00
              0.384752050360469E+00
             -0.530532612743393E-01
              0.263595512330950E-01
             -0.474647273811989E+00
             -0.621740818273780E+00
             -0.740593454186094E-01
             -0.526086282419811E+00
             -0.349951952377614E+00
             -0.589809893073355E+00
             -0.840449399576543E-01
             -0.481193815627703E+00
             -0.737459738685761E+00
              0.338461181680760E+00
             -0.195966973251728E+00
              0.350912617272373E+00
              0.136202956178328E+00
             -0.113126708413860E+01
             -0.775064237806748E+00
             -0.732397079281323E+00
              0.498806516675375E+00
             -0.907356811697864E-01
             -0.943150380062757E+00
              0.843231178813423E+00
             -0.640348494351316E+00
              0.868337816292449E+00
             -0.460581580057981E+00
             -0.746165654864342E+00
              0.387842217748927E+00
             -0.109817217843259E+01
             -0.486861693313478E+00
              0.892154434868562E+00
              0.300445401473347E+00
             -0.633465983668374E+00
              0.836126206513014E+00
             -0.242112608688190E+00
             -0.555595320424629E+00
             -0.458780175171166E+00
             -0.783886817077553E+00
              0.370157750049148E+00
             -0.130589302502054E+01
             -0.116356309399767E+01
             -0.112832511983695E+00
             -0.431986231443827E+00
             -0.902000647061675E+00
              0.114855431776100E+01
              0.206841716239693E+01
             -0.343946520939429E+00
             -0.462599930278165E-01
             -0.919718476662897E+00
              0.992641329742037E+00
              0.327983212821242E+00
             -0.296707405651324E+00
             -0.548310988229880E+00
              0.223114102012971E+00
             -0.910221244786663E+00
             -0.168660021656716E+00
             -0.131358595582912E+01
              0.506990193089692E+00
              0.182174663218134E+00
             -0.815677887452537E-01
             -0.156145519031689E+00
             -0.613497194618654E+00
             -0.188458617835616E+00
              0.204640425530512E+01
             -0.236105550221898E+00
             -0.717514489778425E+00
             -0.103379718054393E+01
              0.206703521057515E+00
             -0.565718710423499E+00
              0.138874026657462E+00
              0.501383201307237E+00
              0.649714501175653E-01
              0.535253488804608E+00
              0.263802200369007E+00
              0.883478031912323E+00
              0.390695154577991E+00
             -0.539442419621798E+00
              0.793834675733052E+00
              0.519843426728911E+00
              0.191677653126078E+00
              0.560588167409958E+00
             -0.453571047479907E+00
              0.107670095065133E+01
              0.377161680764370E+00
             -0.521442083987491E+00
             -0.844256393038065E-01
             -0.244985197362985E+00
              0.244850243415850E+00
             -0.404146102790216E+00
             -0.161108591628927E+00
             -0.196337847086722E+00
              0.122655302378372E+01
              0.879237096752687E+00
             -0.998219357235152E+00
             -0.107752264251673E+00
             -0.769512453926853E+00
             -0.212946369312218E+00
             -0.316588508409029E+00
              0.166547268025706E+00
             -0.612475853955279E-01
             -0.421275106016675E+00
              0.244006644596740E+00
             -0.138647233310768E+00
             -0.119941080350891E+00
              0.131622625405936E+01
              0.237996559775692E+00
             -0.124100221450233E+01
             -0.586728250768100E+00
              0.142588401599701E+01
              0.353232738223966E+00
             -0.122543207374258E+00
              0.165867190397352E+01
             -0.273170024862032E+00
             -0.118775010948726E+00
             -0.169679467716822E+00
              0.238453285910420E+00
              0.483272104956687E+00
              0.378746967721091E-01
              0.426770826060339E+00
             -0.176992955301395E+00
             -0.576632361351406E+00
             -0.584519694258253E+00
             -0.736745038245655E+00
              0.622557947947849E+00
              0.225560425718499E+00
              0.568062056144468E+00
              0.240868281615432E+00
              0.135624355519855E+01
              0.299721088635442E+00
             -0.115211704681105E+01
             -0.497244662073426E+00
              0.619589287054296E-01
             -0.423029923951667E+00
              0.953861487277110E+00
             -0.244688463536345E+00
              0.265727731550001E+00
              0.826388952672937E+00
             -0.121767907565315E+01
              0.223276129300511E+01
              0.291424843420798E+00
              0.359165018626204E+00
              0.567575679545700E+00
              0.630939464013558E-01
             -0.419349192570619E-01
              0.498859990189485E+00
             -0.519449947900539E+00
              0.129616386091273E+01
              0.112918464838094E+01
             -0.581745869450987E+00
              0.261083144097014E+00
              0.109157631336630E+01
             -0.332744113394085E+00
              0.296960635390382E+00
              0.521091540618591E+00
              0.641612098707524E+00
             -0.112557611430650E+01
             -0.997610499164470E-01
             -0.425157409046671E+00
             -0.986857888936408E-01
             -0.927124040979849E-01
              0.810783244320339E-01
             -0.218433823098843E+00
             -0.441624882855326E+00
              0.227190883693830E+00
              0.105613165753887E+00
              0.803944877197935E+00
             -0.688592850269570E+00
              0.662096700544618E+00
              0.755102217760370E+00
             -0.166837436535705E+00
              0.115537054936920E+01
             -0.101360056252889E+01
             -0.156359647450523E+01
             -0.104189333119526E+00
             -0.107611723950205E+00
              0.670816136759989E-02
              0.116202063330410E+01
             -0.298092563432421E-01
              0.633677208130769E+00
              0.880662851593223E+00
              0.591584176426627E+00
             -0.794439523660238E-01
              0.921154819347988E+00
             -0.254409273703155E+00
             -0.579505272633643E+00
             -0.573674383641332E+00
              0.138628244365642E+00
              0.559602876925632E+00
             -0.513384002860207E-01
              0.529982524714057E+00
              0.250645048079301E-02
              0.857015789081871E+00
              0.270932148013185E+00
              0.113787819258554E+00
              0.723546604851766E-02
              0.454329030123861E+00
              0.618933810753291E+00
              0.239379148340699E+00
             -0.513512289677522E-01
             -0.811041828745639E+00
              0.452316939137098E+00
              0.313719175004247E+00
              0.518446311583017E+00
              0.465500407334288E+00
              0.541768190405413E+00
             -0.134888352124305E+00
              0.492375290458587E+00
             -0.429932145360008E+00
             -0.295518413757296E-01
             -0.806650659175341E+00
             -0.530832208185541E+00
              0.654902323121902E+00
             -0.133691668447736E+01
              0.380267312251358E+00
              0.212964186989984E+00
              0.129277091837063E+01
             -0.237859708228854E+00
              0.482131598792054E+00
             -0.177627677829305E+00
             -0.744945816896391E+00
             -0.102118898900456E+01
             -0.208360486705908E+00
             -0.137175827051703E+01
              0.145306080038072E+00
             -0.318199411741196E+00
              0.485749322521216E+00
              0.341704694503745E+00
             -0.421091587143873E+00
             -0.437711366849845E+00
              0.649791729952702E+00
             -0.845207511524213E+00
             -0.197603742377003E+00
             -0.250040069792391E+00
              0.389789957229951E+00
              0.410375606106532E-01
              0.637283913571447E-01
             -0.243028349932884E+00
              0.813408206415811E+00
             -0.859361603601546E+00
              0.122640465445720E+00
              0.901689179262600E+00
             -0.538518835299658E+00
              0.464755836602087E-01
              0.861675962167663E-02
             -0.100938918748679E+01
             -0.615519704418324E+00
             -0.428592647213848E-01
              0.458892055304438E+00
              0.509306970871262E+00
              0.687473457912624E-01
             -0.167729964159866E+00
              0.280765467865861E+00
             -0.629398730784827E+00
             -0.609141808421247E-01
             -0.790459560877895E+00
             -0.387072491463371E+00
              0.751536340724150E+00
             -0.458800632755811E+00
              0.104089867481066E+01
             -0.334514515365422E+00
              0.522149752223131E+00
              0.385534131304206E+00
             -0.901440896771742E+00
             -0.405709022894936E+00
              0.135114034714992E+00
             -0.608853236826947E+00
             -0.627555214891619E+00
             -0.132841131634638E+01
             -0.850478308653773E+00
             -0.755427933488287E+00
             -0.682611669792423E+00
              0.151155757341788E-01
              0.353721242415496E+00
              0.141210598147990E+00
              0.396591392412949E+00
             -0.887895606962143E+00
              0.190315036733320E+00
              0.393160966272406E+00
             -0.104070436533724E+01
             -0.871235465942546E+00
             -0.575143157212430E+00
             -0.473862033098392E+00
              0.237467890720659E+00
             -0.406599443608044E-01
             -0.658724979931223E+00
              0.450726420614656E+00
             -0.330454574489724E+00
              0.791240040367391E+00
             -0.132469777794983E+01
              0.938592767286875E+00
             -0.142502832339439E+00
             -0.658957259288598E+00
             -0.430279469880156E+00
             -0.154900070945134E-01
              0.732485212014026E+00
             -0.105899770975168E+01
             -0.200277525793598E+00
             -0.248436127019591E+00
              0.638418664343807E+00
              0.120212923881879E+01
             -0.149912191576325E+01
              0.139364304074080E+01
              0.607279389237223E+00
             -0.115634721609976E+01
             -0.491307531250306E+00
              0.118273565447365E+01
              0.860640995103322E+00
             -0.305188084540211E+00
             -0.108023228895405E+00
              0.266174307305854E+00
              0.116008071650567E+01
             -0.888425377032243E+00
              0.212507018012582E+00
             -0.109059220442058E+00
              0.419957501519798E+00
             -0.106665132053976E+01
             -0.519476552903119E-01
             -0.428054093628342E+00
              0.730455214180807E+00
              0.584596893864211E+00
             -0.133163562970356E+01
             -0.721195067206452E+00
             -0.319932851901621E+00
             -0.638847902171595E+00
             -0.202255143992932E+00
             -0.297706864858489E+00
              0.688225313346762E+00
              0.667170513368809E+00
             -0.512101932293527E-01
             -0.654568364354986E+00
             -0.128058584119123E+01
              0.749104230646134E+00
             -0.710628531497147E+00
             -0.543194974009970E+00
              0.112564296864565E+00
             -0.547283323064048E+00
             -0.616260359686609E+00
             -0.460585217274773E+00
             -0.748855116368426E+00
             -0.369351030677681E+00
             -0.758190294834393E+00
              0.850297009435384E+00
              0.916375957863059E+00
             -0.144238054690024E+00
             -0.324933266226972E+00
              0.422268048333816E-01
              0.634949526749375E+00
             -0.130315203433262E+01
             -0.364713289445783E+00
              0.765924239924319E+00
              0.104726533079092E+01
             -0.172555691471659E+00
              0.174094044554403E+00
              0.789624918455087E+00
              0.224407759333514E+00
             -0.256686698450670E-02
             -0.582923703758588E+00
              0.224936980818824E+00
             -0.502699936921188E+00
             -0.158401194615529E+00
             -0.313170247093091E+00
             -0.225254993693416E+00
              0.341592540857072E+00
              0.119752269873961E+01
             -0.991662643688653E-01
              0.310097395792321E-01
             -0.138490426313535E+01
             -0.274862035499806E+00
             -0.554087869439583E+00
              0.195585819412516E-01
             -0.684494850054946E+00
              0.133139853477846E+01
              0.131820773099860E+01
              0.284083186488563E+00
             -0.326259238564059E+00
              0.257766879985244E+00
              0.333997105419666E+00
             -0.691563743583893E+00
             -0.119462578808511E+00
              0.267651845689073E+00
              0.192365001353984E+00
              0.775079541050979E+00
              0.617376154889553E+00
             -0.328348399878780E+00
              0.355223122363618E+00
             -0.146480505788042E+01
             -0.515196326098117E-01
              0.135755828080913E+01
              0.270787611300388E+00
             -0.249164876267702E-01
              0.411505540621565E+00
             -0.352147214460936E+00
              0.134786200811253E+01
             -0.282130904785927E+00
              0.119131262146160E+01
              0.568727365380701E+00
             -0.662154516640635E+00
              0.495741369615042E+00
             -0.423539642415489E+00
             -0.101617054405289E+01
             -0.117293382967138E+00
             -0.829146243887691E+00
             -0.796159473316205E+00
             -0.256862796512953E-01
              0.544350489046218E+00
             -0.182783105736827E+00
             -0.484129397733595E+00
              0.105568820192015E+00
             -0.100423854339808E+01
             -0.631606175159102E-01
             -0.131028366124762E+01
              0.831037538449665E+00
             -0.712177105677290E-01
             -0.738936266820355E+00
             -0.275075709885055E+00
              0.256357844887112E+00
             -0.549969676894874E+00
             -0.675564857934185E+00
              0.134703037793919E+01
             -0.414153985710294E+00
             -0.604751678056534E+00
              0.463473627849219E+00
             -0.294424835069745E+00
              0.831324834137812E+00
             -0.103025925584372E-01
              0.558979105564767E-01
              0.162295245464184E+01
             -0.165847348888985E+00
             -0.576039672887185E+00
             -0.697419412017053E+00
             -0.800589582285465E+00
             -0.556318713766773E+00
              0.452451360863179E+00
              0.431718469053592E+00
              0.426800639307957E+00
              0.113045751665725E+01
              0.663834343231748E-01
              0.324764534499156E+00
             -0.902418479455058E+00
              0.222996152684161E-01
             -0.273766109494327E+00
             -0.407212813864994E+00
             -0.655067799792661E-01
              0.505232495301351E+00
              0.572948820857412E+00
             -0.308158089940067E-01
              0.170941654106480E+00
              0.429297217495854E+00
              0.547919730859738E+00
             -0.341714493226188E+00
             -0.146014687555727E+00
              0.161867677849528E-01
             -0.397127426456739E+00
             -0.777184108964413E-01
             -0.558221090650470E+00
              0.116248556405511E+01
              0.921843477425639E+00
             -0.246737143004827E+00
              0.226054849153782E+00
             -0.753476548475782E-01
             -0.441181741800110E+00
              0.554915836689621E+00
             -0.138483941815322E+00
              0.540835964532668E+00
             -0.733459204189653E+00
              0.265434437995415E+00
             -0.117200136972537E+00
             -0.818939523943667E+00
             -0.359517079371368E+00
              0.358863794029924E+00
             -0.146610576827201E+01
              0.576994603283632E+00
              0.715584536701581E+00
             -0.140347787874316E+00
             -0.102668266049727E+00
             -0.469368919813986E-01
              0.407118097643987E+00
             -0.503298445564575E+00
              0.471494552413762E+00
              0.487513145904066E+00
             -0.141904042320368E+01
             -0.544736820033353E+00
              0.357273199135425E+00
             -0.196359006833547E+00
              0.704520484229389E+00
             -0.929119722708435E+00
             -0.109491348534299E+00
             -0.603370739851811E+00
             -0.194666235539313E+01
              0.119184072467881E+01
             -0.919262140405393E+00
             -0.996973678762507E+00
              0.943004828405403E-01
              0.194940825873821E+01
              0.952952660673376E-01
             -0.461706677883394E+00
             -0.114597682993463E-01
             -0.713859365455005E-01
             -0.133080952148067E+01
             -0.851488853700656E+00
              0.128490703735612E+01
             -0.160854275249268E+00
             -0.558329728979447E+00
              0.757265527262033E+00
             -0.498023639140496E+00
              0.521873275971100E+00
              0.737657104955609E+00
             -0.835351365043481E+00
             -0.426498234934368E+00
             -0.485333316706638E+00
             -0.241459959915662E+00
             -0.308883245755292E+00
             -0.247536154002989E+00
              0.288349091584603E+00
             -0.527955448300673E+00
              0.427212983966508E+00
              0.849252812014698E+00
             -0.139624346511178E+00
             -0.293833137131044E+00
              0.217435941469241E+00
              0.829262151721883E+00
              0.819940838106110E+00
              0.117380727704090E+00
             -0.138528768668545E+00
             -0.145735415824780E+00
             -0.809331497057666E+00
              0.608453270026243E+00
             -0.389792134351286E+00
              0.330687268342539E+00
             -0.202990719966316E+00
              0.407570831644625E+00
              0.260531748188340E+00
             -0.124068101456945E+01
             -0.392663632600113E+00
             -0.118640905250112E+01
             -0.596156962867742E+00
              0.845866160258881E-01
             -0.289884309685823E+00
              0.516354565542932E+00
             -0.421962261350722E+00
              0.365737726294340E-01
              0.111554107945263E+00
              0.109801532748662E+01
              0.559961639474092E+00
             -0.470770279893513E+00
             -0.131990156186528E-01
              0.223304275223839E+00
              0.560787593276106E+00
             -0.241179795446556E-02
              0.839606786887478E+00
              0.434331471922172E+00
              0.136219091873722E+01
              0.669521679049796E-01
              0.962368813684296E+00
             -0.407600461003021E+00
             -0.602091428095708E+00
              0.607643574072609E-01
              0.152053238624035E+00
              0.373470028322696E+00
             -0.253538087274208E+00
             -0.183950434178325E+00
              0.343131321216831E+00
             -0.705476463088984E+00
             -0.878127614394307E+00
              0.118989387610745E+01
             -0.948205860142082E-01
             -0.584752283238659E+00
             -0.744423941972283E-01
             -0.214117043170737E+00
              0.617508358991279E+00
              0.553778674572250E+00
             -0.295927894556574E+00
             -0.164879712836656E-01
             -0.400603121631997E+00
             -0.527543938464583E+00
             -0.388600298327969E+00
             -0.147939626331668E+01
             -0.103153899146364E-01
             -0.998940672708255E+00
             -0.885799397124070E+00
             -0.589342860820253E+00
              0.319803726265336E+00
             -0.592353903493859E+00
              0.351411297718367E+00
             -0.953275782361257E+00
             -0.223620940555858E-02
             -0.642747688657519E+00
              0.986499619702461E-01
              0.119651112875425E+00
              0.502220489933060E+00
             -0.302625898076784E+00
             -0.289423609291899E+00
              0.459447382780438E+00
              0.908502262941414E+00
              0.486795833971173E+00
              0.159099487819592E+00
             -0.110749476698141E+01
             -0.217755591541629E+00
             -0.416828334934966E+00
             -0.942793451518509E+00
              0.649977271210325E+00
             -0.513032039633270E+00
             -0.113421970023362E+00
             -0.395008535143208E+00
             -0.151693577752969E+01
              0.846382350762606E+00
             -0.268662438309204E+00
              0.588508036994831E+00
             -0.112480272516278E+01
              0.980207829784452E+00
              0.852233032468677E-01
             -0.408935471499564E+00
              0.128376115419427E+00
             -0.324498939346469E+00
             -0.979121174604015E+00
              0.268835765086497E+00
              0.537931930292620E+00
             -0.611823675955669E-02
             -0.521348309402407E+00
             -0.217431703516619E+00
              0.303423567343094E+00
              0.543176319581369E+00
              0.946467806616805E+00
              0.345326183441546E+00
             -0.352785922967385E+00
              0.146228951813617E+01
              0.355192516142069E+00
              0.685597178642958E+00
             -0.234992988159767E+00
              0.454469867793947E+00
              0.336015117815526E+00
             -0.931647125865328E+00
             -0.334160133009362E+00
             -0.598373290750059E+00
             -0.586006526288947E+00
             -0.164053577612147E+00
             -0.152925645901946E+00
             -0.659972490000618E+00
             -0.169693440852132E+01
             -0.413240249753884E+00
              0.229237438932895E+00
              0.902020205186460E-01
              0.206858102395363E+00
              0.641386960364094E+00
              0.198712802910459E+00
              0.476018038897783E+00
             -0.670964824426079E+00
              0.653821026978909E+00
             -0.626647017325070E+00
             -0.103546108040716E+01
              0.295172215832563E+00
             -0.614970640410609E+00
             -0.619151221870041E+00
             -0.241338450583917E+01
             -0.117491017534387E+00
              0.126205627983473E+01
              0.633794061220087E+00
             -0.152027031096015E+00
             -0.155817881999468E+00
              0.605266142737774E+00
              0.969272160102972E+00
             -0.586955452580722E+00
             -0.197528310502435E+00
             -0.535669396366925E+00
             -0.509837630015165E+00
             -0.470048862580538E+00
              0.190866422079437E+00
              0.107154120928725E+01
             -0.993181030531200E+00
             -0.816618932382533E+00
              0.469810498856642E-01
             -0.212442576453051E+00
             -0.277545551553837E+00
             -0.136728018757039E+01
              0.908194659709220E+00
              0.310849518073697E+00
              0.121756883938177E+00
              0.794992775047337E+00
             -0.481304859453384E+00
              0.512518537116744E+00
              0.438495449192131E+00
              0.500450834359309E-01
             -0.124720660776772E+00
              0.146916057973377E+00
             -0.232778511466808E+00
              0.770919012779173E+00
             -0.627252291002415E+00
              0.684081438292976E+00
              0.144396289107735E+00
              0.235686597161279E+00
              0.301444362801091E+00
             -0.122283768633157E+01
              0.130377092292375E+00
             -0.995834253446441E+00
             -0.738308882379174E+00
             -0.730468137767662E+00
             -0.772283311040336E+00
              0.126564156317510E-01
              0.266019180585920E+00
              0.746372156839131E+00
              0.120447282171091E+00
              0.216340839758751E+00
             -0.105842382775678E+01
             -0.431460791956535E+00
              0.485760936556393E+00
             -0.302841601847693E-01
             -0.413931634150817E-01
             -0.144209495714549E+00
              0.553249074885904E+00
             -0.137861494941773E+01
              0.204662242879160E+00
              0.339514276630990E+00
              0.604281309173441E+00
              0.574376817084352E+00
             -0.861001654187804E+00
              0.220163145254523E+00
              0.903684594163066E-01
              0.110789196890237E+00
              0.597846627372407E-01
             -0.300969802944217E+00
             -0.637017601753707E+00
              0.258819333599417E+00
              0.888233870389828E+00
             -0.372727910529012E-01
              0.201348300600238E+00
              0.181233244946904E+00
             -0.458989761575754E+00
             -0.471631202041207E+00
             -0.184211927596868E+01
             -0.591836067872251E+00
             -0.855890498758666E+00
             -0.107293664674112E+00
             -0.101465374132051E+01
              0.114800524492963E+01
             -0.500762994633701E+00
             -0.821154916544501E+00
             -0.238181122018916E+01
              0.102408116113463E+01
              0.219956303970303E+00
              0.958658709723457E-01
             -0.919410483402537E+00
              0.646887218784844E-01
             -0.228577837794109E+00
             -0.473089650598047E+00
              0.121045614671258E+00
              0.479648045774263E+00
              0.865715247015222E-01
             -0.290867681913944E+00
              0.352988110779773E-01
              0.114478745501438E-01
              0.187374368551967E+00
             -0.100445479524023E+01
              0.109364162538983E+01
             -0.627015045509237E+00
             -0.392318751715712E+00
             -0.746820924616651E+00
             -0.160968909524766E+01
              0.828139575014797E-01
             -0.834804187010983E+00
             -0.298616524667500E+00
              0.472268212130167E+00
             -0.396072400410192E+00
             -0.147799292776821E+00
             -0.188989938419377E+00
             -0.337726177821504E+00
              0.427794716047452E-01
              0.776593072759991E+00
             -0.781612047546804E+00
              0.154434872142822E+01
             -0.353206617938045E+00
              0.502915526844308E+00
             -0.240822177435458E+00
              0.195318220574578E+00
             -0.186409543470139E+00
              0.687092289630268E+00
              0.967888863387880E+00
              0.275945586181235E+00
              0.723368459258946E+00
             -0.466790949969814E+00
             -0.900173119459557E-01
             -0.375528500061640E+00
              0.954372598067223E+00
              0.827232522783147E+00
              0.606732567215248E+00
             -0.205648744162788E+00
             -0.398709066097085E+00
              0.368281832062541E+00
             -0.419862775828854E+00
             -0.222832313333550E+00
             -0.974415844764122E-01
             -0.522020655298220E+00
              0.757003329091068E+00
             -0.152332386383266E+00
              0.550664727579277E+00
              0.302403326617370E+00
              0.239288079431523E+00
             -0.523457602019152E+00
              0.413771108903147E+00
             -0.210181128292676E+00
             -0.110170702432965E+00
             -0.188355335027106E-01
             -0.749030515172240E+00
              0.118451550834511E+01
             -0.425892097022696E+00
              0.912948912047362E-02
              0.358356037241304E+00
              0.302073715203434E+00
              0.115264548824983E+01
             -0.337111302895551E+00
              0.114688795831715E+01
              0.101899044998973E+01
             -0.143054097181278E+01
              0.121614743933333E+00
             -0.285253133732772E+00
              0.166539940020884E+00
              0.686601139849157E-01
              0.306327576221878E+00
              0.969934978061876E+00
              0.146657445586233E+01
             -0.112885152600348E+01
              0.116221568567583E+01
             -0.149556725857554E+01
             -0.126732495520384E+01
             -0.210033598147057E+00
              0.203805584292063E-01
              0.117604694071542E+01
              0.509193898264945E+00
             -0.231065653811515E+00
             -0.129070952718880E+01
              0.101542975598785E+01
             -0.637163838090909E+00
              0.187315528256029E-01
             -0.635108840831615E-01
              0.196856004513803E+01
             -0.359993402179965E+00
             -0.158920364257024E+01
              0.465147480527749E+00
             -0.245741650661341E+01
              0.197494731326267E+00
             -0.582557035572015E+00
             -0.257756578750862E+00
             -0.402705674685930E+00
             -0.897698472504798E+00
              0.566916341488683E+00
             -0.536704272907470E+00
             -0.198133857326897E+00
             -0.114818158168056E+01
             -0.728289249547229E-01
             -0.805409192248776E+00
             -0.115791643993985E+01
             -0.165803106419711E+01
              0.127188410196253E+00
             -0.535037987641088E+00
              0.105571154557750E+00
             -0.186479581913400E+00
             -0.124605482187805E+01
             -0.960266944575032E+00
             -0.851197570667862E+00
             -0.857547127620881E+00
              0.790591962661479E+00
              0.117985965382449E+00
             -0.740790142801233E+00
             -0.357884994346051E+00
             -0.406533629328257E+00
              0.607770883147185E+00
             -0.487766748985704E+00
             -0.981752144473945E-01
             -0.440231591388024E+00
             -0.606595177703614E+00
             -0.611977167430437E+00
              0.622297079082842E+00
             -0.195494698311977E+00
             -0.137196025470190E+01
              0.119064103821650E+01
              0.697603442265654E+00
              0.622602960453165E-01
             -0.120157414691639E+01
             -0.114094975673523E+01
              0.104041592401897E+00
              0.211746659738763E-01
             -0.507438403922961E+00
             -0.690907903437358E+00
              0.483545742658329E+00
             -0.890866890309265E-01
              0.409052627258695E+00
              0.717881681314990E+00
              0.542335297655641E+00
              0.391581825892362E+00
              0.335766318990687E+00
             -0.340800038044059E+00
             -0.218184434564429E+00
             -0.270040150144420E+00
             -0.571465396997265E+00
             -0.732280574102232E+00
             -0.931311761733594E+00
             -0.554056116933913E+00
             -0.184581555702595E+00
             -0.114703661536937E+01
             -0.231537099094981E+00
              0.505906606437390E+00
             -0.123101602951137E+01
              0.522421117745173E+00
              0.410143997550715E+00
             -0.107742145107171E+01
             -0.853485906360488E+00
             -0.331181680183732E+00
              0.210888893401571E+00
             -0.621509585521721E+00
              0.112984625817316E+01
              0.100396583224469E+01
             -0.116150735610693E+01
              0.667365505121698E+00
              0.549573596757267E+00
              0.142351797226864E+00
              0.301916611781756E+00
             -0.639053480902247E+00
             -0.235544124943965E+00
              0.826751291185808E-01
              0.300458040828778E+00
              0.640658874307136E+00
             -0.825430761416375E+00
             -0.148311920361073E+00
              0.255531881609568E+00
              0.918940243286466E-01
             -0.506644617592205E+00
              0.276560757022619E+00
             -0.391046067210831E+00
             -0.262239725340114E+00
              0.254147778558522E-02
             -0.932976998753626E+00
              0.183851926510092E-02
             -0.178376902904569E+00
             -0.229385610361795E+00
              0.195359959758099E+00
             -0.810628987746948E+00
              0.861591804293091E+00
             -0.332727058076626E+00
             -0.201577121953799E+01
             -0.130681626877373E+01
              0.536007910983256E+00
             -0.605014429711841E+00
             -0.327826437025976E+00
             -0.378035590016037E+00
             -0.276253431063527E+00
             -0.156268220176256E+01
             -0.431212736127566E-01
             -0.942863158712155E+00
             -0.486088735001764E+00
              0.334311863616820E+00
              0.117109255297036E+01
              0.528506607576512E-01
              0.391107460434479E-01
              0.906006284474689E+00
             -0.835467672179343E+00
              0.443873436352398E+00
              0.104283866496746E+00
             -0.766715372175232E+00
             -0.422640270594397E+00
              0.306972324979488E+00
              0.416579319495083E-01
              0.234425701698518E+00
              0.221451821683200E+00
             -0.357307769746234E+00
             -0.463778370616037E+00
             -0.754143093903325E+00
              0.746509487155696E+00
             -0.102282009330837E+01
             -0.748836181125001E+00
              0.220167292090470E+00
             -0.129485087157964E+01
              0.326755591189499E+00
              0.887217378652078E+00
             -0.163412612880316E+00
              0.271731183454694E+00
             -0.478039468771069E+00
             -0.330894621415720E+00
              0.163434884098438E+00
              0.547314873052390E+00
             -0.560858282799641E+00
              0.352793005502873E+00
             -0.213777152468513E+00
              0.623118024601084E-01
              0.300545210751248E+00
              0.176415271847638E+00
             -0.162139214432405E+00
             -0.104260069923319E-01
              0.215832384176569E+00
              0.413745644339574E+00
             -0.106664251188452E+01
             -0.146894992168694E-01
              0.820923619620705E+00
             -0.136637946827801E+01
              0.501942639741341E+00
             -0.173596265438087E+01
             -0.162760426004554E+00
             -0.219388338335438E+00
             -0.479161599549602E-01
             -0.170140439777327E+00
             -0.428129253605615E+00
             -0.129290580090226E+00
              0.225218348722638E+00
             -0.355681476954623E+00
              0.170575112064783E+00
              0.136098726898186E+01
             -0.880954088017734E+00
             -0.391344591860475E+00
              0.613268180022081E+00
              0.316711802746097E+00
              0.621168465086494E+00
              0.272736607504613E+00
              0.300031608046780E+00
             -0.223949294027474E+00
             -0.752831731571161E+00
             -0.666375223060821E+00
             -0.487371407437306E+00
              0.696644639151187E-01
             -0.635246534465876E+00
             -0.175662151757594E+00
              0.956394664890561E-01
              0.367687184181506E+00
             -0.105549178242750E+00
              0.877450607294771E+00
             -0.950423041813084E+00
             -0.275199613657575E-01
             -0.119694205249474E+00
              0.474806801448367E+00
             -0.664341038860422E+00
             -0.428289149546992E+00
              0.249486457539742E+00
              0.719417742540308E+00
              0.111632858921679E+01
              0.482326411663634E+00
              0.689808872741691E+00
             -0.387174018492045E+00
              0.946294210542661E+00
              0.960764344377675E+00
             -0.480803172705269E-01
              0.498409564726834E+00
              0.583942861703275E+00
             -0.320452720517243E+00
              0.179203097415116E+00
              0.997715775311715E+00
             -0.335573214401643E+00
             -0.124151396862654E+00
             -0.954361211564072E+00
              0.356642680401681E+00
             -0.198602388897763E+00
              0.316308356926720E+00
              0.443683617995978E-01
             -0.600856950005003E+00
              0.695427576431375E+00
              0.601609339874545E+00
             -0.455711730041006E+00
              0.252763480147510E+00
             -0.881847417128583E+00
             -0.823099420329850E+00
              0.376114670438699E+00
             -0.103812966877771E+01
             -0.513958259118720E+00
              0.414780705610998E-01
              0.129435656979131E+01
             -0.332604515600453E+00
             -0.154361945277637E+00
             -0.286941340863600E+00
              0.170074213953623E+01
              0.290035206487044E+00
             -0.635422539706667E+00
              0.105243574001944E+01
              0.940828877751123E+00
              0.494666634080676E+00
              0.119743473486865E+01
              0.128708271488623E+01
             -0.784919713355262E-01
             -0.453765224426006E+00
             -0.401600551492811E+00
              0.403134028076268E+00
              0.583504535732205E+00
             -0.100773344709257E+00
             -0.354979754235159E+00
             -0.871065753826327E+00
             -0.344307404655535E+00
             -0.702872447155139E+00
              0.501942410427318E+00
              0.251244957236277E+00
              0.899759061887263E+00
              0.180124881577687E+00
             -0.354824690089584E+00
             -0.134755668470584E+00
              0.609109261850266E+00
              0.161937974302813E+00
              0.906079852335747E+00
              0.847746070336708E+00
             -0.147654058300931E+00
             -0.119217373296622E+00
             -0.151036860818906E+01
              0.755735634923435E+00
             -0.248633814912118E-01
              0.840823730431494E+00
             -0.370754219282057E+00
             -0.986863444499608E+00
              0.287190458076520E+00
              0.108760577033462E+01
             -0.383917446987415E+00
              0.101875293604923E+01
             -0.108607526382471E+01
             -0.388049012312776E+00
             -0.127962215799601E+01
              0.275089714161156E+00
              0.963035349814145E-01
              0.107473051505675E+00
             -0.931668426003900E+00
              0.138084455702805E+01
              0.807440962196956E+00
              0.922664721625308E-01
             -0.783275104220638E+00
              0.306236218366904E+00
             -0.303356379875336E+00
             -0.205975642100910E+00
             -0.393604216842222E+00
              0.266889674824448E+00
             -0.224969389055275E+00
             -0.276221378274770E+00
              0.346867643466377E+00
              0.353161541043986E+00
             -0.135758059620576E+01
              0.294188157336628E+00
              0.996863449677126E+00
              0.642880580055307E+00
             -0.213073067840130E+00
             -0.133401661130401E-01
             -0.558322996806588E+00
              0.854394148138413E+00
              0.157876931660468E+00
             -0.526693618768679E-01
             -0.825799028436229E-01
              0.165770955726723E+01
             -0.882302969648290E-01
              0.387295028472792E+00
              0.110985700715026E+01
              0.147035277129036E+01
              0.908669481095345E+00
              0.608405770666692E+00
             -0.943937658648140E+00
             -0.694092634356421E+00
              0.554256768929577E+00
              0.397169308230536E-01
              0.464728617141954E+00
              0.197337922383427E+00
              0.963499755896508E+00
             -0.119930625399468E+01
             -0.746669738643164E+00
             -0.157238433095819E+00
             -0.131667330633743E+01
              0.282075519816943E+00
              0.672281033921632E+00
              0.538460106303171E-01
             -0.312974349197259E+00
              0.316022896382133E+00
              0.205686683313955E+01
              0.467827515748080E+00
              0.269107948557576E+00
             -0.732785443317444E+00
             -0.906781566223698E+00
             -0.203626393924465E+00
              0.418655485088345E+00
             -0.896996134493717E-01
              0.368998232648458E+00
              0.525878416316619E+00
             -0.958225384777730E+00
              0.408085297839434E+00
              0.554393174971658E+00
              0.879697809164279E+00
             -0.151419411492800E+00
              0.603477164243351E-01
             -0.107865290293037E+00
             -0.689878272218896E+00
             -0.109917524906410E+01
              0.117470115867245E+01
             -0.153010951307246E+00
             -0.820946231765091E+00
              0.102438899417410E+00
             -0.449442276875809E+00
              0.129807203627407E+01
             -0.333202178464783E+00
             -0.560283217522871E+00
              0.537185946178607E+00
             -0.227090645294486E+00
              0.705824728950524E+00
             -0.493313967812181E-02
              0.142153448402771E+01
              0.772261023609709E+00
              0.148528064437648E+00
             -0.590523145481412E+00
              0.425866632586738E+00
             -0.824034835774948E+00
             -0.779680734552508E-01
              0.974056038372887E+00
             -0.382774085486145E+00
             -0.668761373415673E+00
             -0.334335765991268E+00
              0.785980662325738E+00
              0.190513313387031E+00
             -0.124030773302813E+01
              0.517818036660788E+00
              0.122871694216560E+00
              0.156715722765454E+00
             -0.732568526877127E+00
              0.145169936564090E+00
              0.526362868669128E+00
              0.718084639496518E+00
              0.960794246370398E+00
              0.519632116697927E+00
              0.125654315375830E+00
             -0.816588799648470E+00
             -0.630888485044796E+00
             -0.100910157746960E+01
             -0.193873062491287E+00
              0.512917550661472E+00
             -0.137769536378962E-01
              0.787864940448989E+00
             -0.478298777471034E+00
              0.266148004773524E+00
             -0.319741862006666E+00
             -0.401444697049417E+00
              0.880240621828316E+00
              0.827249671935810E-01
              0.925087103105261E+00
              0.793047470452413E-01
              0.313650452729264E+00
             -0.239593840084475E+00
              0.917247829560449E+00
             -0.220176820676961E+00
             -0.138072598608440E-01
             -0.117767430409882E+01
             -0.116614677096848E+00
              0.105935272734298E+01
              0.995013891247641E+00
              0.362068595744583E+00
             -0.229885227045058E+00
              0.562718632700663E-01
             -0.335635930403627E+00
             -0.252329796166354E+00
              0.133581145094475E+01
              0.940524825354210E-01
             -0.424816771101507E+00
             -0.162204159235307E+01
             -0.684799415338557E+00
             -0.565800787584768E+00
             -0.942882933754305E+00
             -0.894095813294054E+00
             -0.108457628694853E+01
             -0.677421883693371E+00
             -0.436600852728519E+00
             -0.715201653030404E+00
              0.667276302928986E+00
             -0.290433330254670E+00
             -0.134112746702059E+01
              0.630377539883598E+00
             -0.500982819795468E+00
             -0.120242993501863E+01
              0.152866467627479E+01
             -0.377090603027336E+00
              0.237326398952880E+00
              0.584092910880588E+00
              0.168202703581319E+00
              0.378467840815587E+00
              0.786726842712326E-02
              0.145756965202530E-01
             -0.181896979680213E+00
             -0.109869346636582E+01
              0.160502632268083E+00
             -0.183990699205390E+01
              0.105921875460579E+01
             -0.605918093780459E+00
             -0.261188665021038E+00
             -0.302870103081188E+00
              0.313896085800365E+00
             -0.249814830483162E+00
              0.441594748734000E+00
             -0.876260914031987E+00
              0.565236475784787E+00
              0.629212072455592E+00
              0.163762459052271E+00
              0.129444360806314E+00
              0.322539794229060E+00
              0.139488269178202E+00
              0.468355952232778E+00
             -0.812635004938524E-01
             -0.107818679395942E+01
              0.148795575440412E+00
             -0.515412309981706E+00
             -0.425494202024241E-01
              0.812919521949022E+00
             -0.121517139027668E+01
              0.238423635200480E-01
              0.435975622290066E-01
              0.135974733316202E+00
              0.470634175356645E+00
             -0.198110136259096E+00
              0.127222802082768E+01
              0.590304271312281E+00
             -0.230980494948324E+00
             -0.155996784653079E+00
              0.867429695946638E-01
              0.119448177545505E+01
             -0.751449449479926E+00
             -0.153569074311891E+01
              0.433219417242146E+00
             -0.107760100605936E+00
             -0.222160450012548E+00
              0.288499672017167E+00
              0.115184873087133E+01
              0.641365334986444E+00
             -0.265821923835561E+00
             -0.805456470480037E+00
             -0.177817649967921E+00
              0.417644601162722E+00
             -0.263280109678353E+00
             -0.114158181143898E+01
             -0.123335538291288E+00
             -0.146076799477310E+01
             -0.766368521957189E+00
              0.129516485381472E+01
             -0.782539307268364E+00
             -0.107292998918189E+01
             -0.809513190372271E+00
             -0.595826097720683E+00
              0.500665875758626E+00
              0.127725429280242E+01
             -0.127685733535343E+00
              0.404728305941401E+00
             -0.292894778780825E+00
             -0.102092437246012E+01
              0.782955920828584E+00
             -0.722751020491105E+00
              0.394464687834484E+00
              0.448337897173370E+00
             -0.226093145087231E+00
              0.591047426346540E+00
              0.598627876421367E+00
              0.178986658454373E+01
             -0.175086210869580E+00
             -0.817314291904590E+00
             -0.100829866220784E+01
             -0.276798000124419E+00
             -0.603746743322420E+00
              0.143632238855301E+01
             -0.683233846470659E+00
              0.148548026398749E+00
              0.492657009855160E-01
             -0.308793238530628E+00
             -0.127609972410468E+01
             -0.994032377863463E-01
              0.151284165248176E+01
              0.305200655386924E+00
              0.116978032163792E+00
             -0.859040692880762E+00
             -0.821797690387427E+00
             -0.250618351368240E+00
              0.686868882270478E+00
             -0.398069178011943E+00
              0.153191531654238E+01
             -0.688708934745769E+00
              0.285926316664696E+00
             -0.232306780414665E+00
             -0.928197456478222E+00
              0.983459401911206E-01
             -0.847968998544239E+00
             -0.111455888077803E+01
              0.150583723985705E+00
              0.223108755272183E-01
              0.738126408978288E+00
              0.400972376366198E+00
             -0.525453052171082E+00
              0.341468306588128E+00
             -0.130695587244372E+01
             -0.729834203108355E+00
              0.141079691249740E+01
              0.748854945050768E-01
             -0.956482888280199E-01
             -0.388217877082293E+00
             -0.426145257439892E-02
             -0.170287538660794E+00
              0.136223083173925E+01
              0.614717472843708E+00
             -0.148092971518651E+00
             -0.203193455879482E-01
             -0.586346928536307E+00
             -0.214160494355014E+00
             -0.955692850628739E+00
              0.780419719386754E+00
              0.992331819123802E-01
              0.130226330277372E+00
              0.264020552935230E+00
             -0.199984333073954E+00
             -0.336297249057101E+00
              0.937679989566581E-01
             -0.167302966629686E+01
             -0.168734703013928E+00
             -0.127801324135564E+00
             -0.980582158657370E-01
              0.767353708423809E+00
              0.962415603633764E+00
              0.261840161686087E+00
             -0.140933720578736E+01
              0.971518164206827E+00
             -0.367526666895487E+00
             -0.563217740826202E+00
             -0.132321720106628E+01
             -0.431105912146998E+00
              0.925158381690729E+00
              0.492649288057372E+00
              0.248667522712736E+00
              0.524064153805373E+00
             -0.844322758423483E+00
             -0.727964617685770E+00
              0.943924556427691E+00
              0.630045602414908E+00
              0.724710758210773E+00
              0.908875207933109E-01
              0.152964427468614E+00
              0.799205560962754E+00
              0.150410598017967E+01
             -0.287655562914399E+00
              0.601256909140762E+00
             -0.389332265650028E+00
             -0.664000238240559E+00
             -0.516719659691706E+00
             -0.484565389073493E+00
             -0.212648528461873E+00
             -0.729181280420519E+00
             -0.311014588903459E+00
             -0.196444573742708E+01
              0.474644102156192E+00
              0.424303687649406E+00
             -0.400508801287274E-01
             -0.569091171043285E+00
             -0.296810245967582E+00
             -0.841769517889877E+00
              0.991418413751788E-01
              0.120585388933562E+01
             -0.277759607765903E+00
             -0.283242600111906E+00
              0.280705256162701E+00
             -0.752855415255573E+00
              0.131459051658095E+01
              0.251896901607029E+00
              0.113548643303218E+00
              0.802619818231284E+00
             -0.688275719470957E-01
              0.894753738840412E+00
              0.294141811688766E+00
             -0.507166006564068E-01
              0.211128091760537E+00
             -0.135130135779785E+00
              0.103986924383434E+01
              0.105927797112013E+00
              0.306117290461424E+00
             -0.126087496453027E+00
              0.158412765878879E+00
             -0.142793923513978E+01
             -0.552436120059676E+00
             -0.737674159722628E+00
              0.786527857460874E+00
             -0.529317662299195E+00
             -0.862554215468911E+00
              0.903139402034988E+00
             -0.219736391486741E+00
              0.638207782620211E+00
             -0.136226636283792E+01
              0.301049943570399E+00
              0.705570647085840E-01
              0.854902819019951E-01
             -0.191396615352019E+00
             -0.918656958866340E-01
              0.758473931875775E+00
              0.444296404503257E-01
             -0.783886444727494E+00
             -0.318042729304679E+00
              0.299984957332539E+00
             -0.175704614616723E+01
             -0.134159681938055E+01
              0.174761615084478E-01
              0.230028979467694E+00
             -0.753937028735662E+00
              0.292566944186667E-03
              0.157570753887587E+01
              0.472269787898671E+00
             -0.822172323651474E+00
              0.117808114803510E+00
             -0.155561656069307E+00
              0.190703724888266E+00
             -0.528540914166952E+00
              0.327704588749142E+00
              0.359530326285946E+00
             -0.137382135004040E+00
              0.170482135862152E+01
             -0.742239850509829E-01
             -0.474440561601764E+00
              0.459487825624972E+00
              0.646325989542692E+00
             -0.502966926317821E+00
             -0.151562237494220E-01
              0.147857997933328E+01
             -0.279266273323078E-01
              0.781351888112427E+00
              0.253024172944551E+00
             -0.121141687862566E+00
             -0.239404797640728E+00
              0.744571613542353E+00
             -0.898940001257357E+00
             -0.411393418686452E-01
             -0.295530994211331E+00
             -0.624739808077015E+00
              0.165374953034678E+00
              0.357789953172831E+00
             -0.983705007599855E-02
             -0.337599071013406E-01
             -0.616964403925079E+00
              0.240923941778245E+00
             -0.196673232003550E-01
             -0.341643556521686E+00
             -0.318493192856423E+00
              0.280250527414824E+00
             -0.141514397581393E-01
             -0.585230301446532E+00
             -0.162010592661268E+01
              0.853315974745064E-01
              0.252050479505264E+00
             -0.727810322080563E+00
             -0.373706197053475E+00
              0.124370535404811E+01
              0.175280863508529E+00
              0.655503118862635E+00
              0.156402435185035E+00
              0.596832477831772E+00
              0.337148513342633E-01
             -0.606841914215087E+00
             -0.148683372191673E+00
              0.871706365986360E-01
              0.458657473395109E+00
              0.116033737801706E+01
              0.746074554485653E+00
              0.402692244362410E-01
              0.159599169864229E+00
              0.914267412566018E+00
              0.425137954688729E+00
             -0.107114030612337E+01
             -0.420581115850315E+00
              0.186151736897671E+00
              0.154956527425584E+00
              0.387540191586888E+00
             -0.785179085297228E+00
              0.895667496882027E-01
              0.613818312498893E+00
              0.742582570825275E+00
             -0.645981155748840E+00
              0.208444184616052E-01
             -0.377956006000559E-01
             -0.316654279836798E+00
             -0.399310258067566E+00
             -0.187495802990525E+00
             -0.157136322036026E+00
              0.164403520418672E+00
              0.633966531854112E+00
             -0.493170414144874E+00
              0.122847495497772E+01
              0.517184565511305E+00
              0.392609977636595E+00
              0.554699933731960E+00
              0.393930822440461E+00
              0.508233203773560E+00
              0.843956381790010E+00
             -0.719051060901598E+00
              0.956640663854638E+00
             -0.171282360047510E+01
              0.481803530441320E+00
             -0.160267714658081E+01
              0.122210376390597E+01
              0.118787051397613E+01
             -0.129663678933155E+00
             -0.720880923243866E+00
             -0.644841737867691E+00
             -0.827403926823818E+00
             -0.986970255364059E+00
              0.824662112645258E+00
              0.657105597929005E+00
              0.371957615610462E+00
              0.408583748355213E+00
              0.656752693263900E+00
             -0.617153569617126E+00
             -0.222368544460728E+00
              0.812275270246678E+00
             -0.180626768944298E+00
              0.745063253549863E+00
              0.116829637375384E+01
             -0.409009069463649E-01
             -0.114146333392653E+01
              0.659368612214983E-01
              0.348718570378490E-01
             -0.159328335469291E+00
              0.548766052782788E-01
             -0.991087617826284E+00
             -0.156215222034288E+00
              0.198937236470165E+00
              0.195165706464649E+00
              0.751956122858209E+00
             -0.627642524988956E+00
              0.817627190382984E+00
             -0.582876377632831E+00
              0.396970951214278E+00
              0.662867136674948E+00
 
 BEEF-vdW xc energy contributions
           1 :   -10.7575920733491     
           2 :    8.93947411566646     
           3 :   -6.33673956327206     
           4 :    3.90137037718803     
           5 :   -2.05080896701880     
           6 :   0.837293180870546     
           7 :  -0.151448554481462     
           8 :  -0.183175394296731     
           9 :   0.335836937710257     
          10 :  -0.422985034002641     
          11 :   0.483070249332902     
          12 :  -0.500785368219551     
          13 :   0.454738271821739     
          14 :  -0.354346532787844     
          15 :   0.228276747934734     
          16 :  -0.104892679831678     
          17 :   4.356649521588096E-003
          18 :   6.068867246773202E-002
          19 :  -9.005954207414923E-002
          20 :   9.271524277085952E-002
          21 :  -8.168972042608402E-002
          22 :   6.670976337719559E-002
          23 :  -5.368706451570837E-002
          24 :   4.226032655916256E-002
          25 :  -2.921549033968418E-002
          26 :   1.505793314910342E-002
          27 :  -4.196589451009203E-003
          28 :  -3.148763658327169E-003
          29 :   9.341041387747495E-003
          30 :  -1.769693497159786E-002
          31 :   -1.35567173820803     
          32 :  -0.839620701808107     

     Writing output data file ./pwscf.save/
 
     init_run     :     71.57s CPU     73.77s WALL (       1 calls)
     electrons    :    456.93s CPU    483.50s WALL (       1 calls)
     forces       :     31.63s CPU     33.60s WALL (       1 calls)

     Called by init_run:
     wfcinit      :      1.23s CPU      1.28s WALL (       1 calls)
     potinit      :     58.45s CPU     59.96s WALL (       1 calls)
     hinit0       :     10.19s CPU     10.31s WALL (       1 calls)

     Called by electrons:
     c_bands      :     59.11s CPU     59.18s WALL (      13 calls)
     sum_band     :     34.55s CPU     40.12s WALL (      13 calls)
     v_of_rho     :    298.61s CPU    314.40s WALL (      14 calls)
     newd         :     16.08s CPU     21.80s WALL (      14 calls)
     PAW_pot      :      1.19s CPU      1.20s WALL (      14 calls)
     mix_rho      :     99.53s CPU    100.78s WALL (      13 calls)
     vdW_kernel   :     33.46s CPU     33.47s WALL (       1 calls)

     Called by c_bands:
     init_us_2    :      1.01s CPU      1.03s WALL (      27 calls)
     regterg      :     57.50s CPU     57.56s WALL (      13 calls)

     Called by *egterg:
     rdiaghg      :      0.02s CPU      0.02s WALL (     101 calls)
     h_psi        :     52.62s CPU     52.63s WALL (     102 calls)
     s_psi        :      0.73s CPU      0.73s WALL (     102 calls)
     g_psi        :      0.19s CPU      0.19s WALL (      88 calls)

     Called by h_psi:
     h_psi:calbec :      0.83s CPU      0.83s WALL (     102 calls)
     vloc_psi     :     50.74s CPU     50.75s WALL (     102 calls)
     add_vuspsi   :      0.77s CPU      0.77s WALL (     102 calls)

     General routines
     calbec       :      1.01s CPU      1.01s WALL (     119 calls)
     fft          :    254.11s CPU    254.17s WALL (    2755 calls)
     ffts         :     46.24s CPU     46.25s WALL (     503 calls)
     fftw         :     48.82s CPU     48.82s WALL (     529 calls)
 
     Parallel routines
 
     PWSCF        :  19m32.53s CPU  20m49.27s WALL

 
   This run was terminated on:  16:43:22  20Dec2022            

=------------------------------------------------------------------------------=
   JOB DONE.
=------------------------------------------------------------------------------=
