
     Program PWSCF v.6.7MaX starts on 16May2022 at  9:23:30 

     This program is part of the open-source Quantum ESPRESSO suite
     for quantum simulation of materials; please cite
         "P. Giannozzi et al., J. Phys.:Condens. Matter 21 395502 (2009);
         "P. Giannozzi et al., J. Phys.:Condens. Matter 29 465901 (2017);
          URL http://www.quantum-espresso.org", 
     in publications or presentations arising from this work. More details at
     http://www.quantum-espresso.org/quote

     Parallel version (MPI), running on     1 processors

     MPI processes distributed on     1 nodes
     Reading input from h2_ensemble.in
Warning: card &CELL ignored
Warning: card / ignored

     Current dimensions of program PWSCF are:
     Max number of different atomic species (ntypx) = 10
     Max number of k-points (npk) =  40000
     Max angular momentum in pseudopotentials (lmaxx) =  3
     file H.pbe-kjpaw_psl.1.0.0.UPF: wavefunction(s)  1S renormalized

     **************************************************************************
     Initializing libbeef V0.1.2 with the BEEF-vdW functional.
     Citation: Wellendorff et al., PRB 85, 235149 (2012).
     **************************************************************************


     IMPORTANT: XC functional enforced from input :
     Exchange-correlation= BEEF-VDW
                           (   1   4  43  14   2   0   0)
     Any further DFT definition will be discarded
     Please, verify this is what you really want


     gamma-point specific algorithms are used

     Subspace diagonalization in iterative solution of the eigenvalue problem:
     a serial algorithm will be used

 
     G-vector sticks info
     --------------------
     sticks:   dense  smooth     PW     G-vecs:    dense   smooth      PW
     Sum       27281   27281   6817              3514489  3514489  439113
 


     bravais-lattice index     =            0
     lattice parameter (alat)  =      37.7945  a.u.
     unit-cell volume          =   55973.1628 (a.u.)^3
     number of atoms/cell      =            2
     number of atomic types    =            1
     number of electrons       =         2.00
     number of Kohn-Sham states=            5
     kinetic-energy cutoff     =      60.0000  Ry
     charge density cutoff     =     240.0000  Ry
     scf convergence threshold =      1.0E-06
     mixing beta               =       0.7000
     number of iterations used =            8  local-TF  mixing
     Exchange-correlation= BEEF-VDW
                           (   1   4  43  14   2   0   0)

     celldm(1)=  37.794522  celldm(2)=   0.000000  celldm(3)=   0.000000
     celldm(4)=   0.000000  celldm(5)=   0.000000  celldm(6)=   0.000000

     crystal axes: (cart. coord. in units of alat)
               a(1) = (   1.000000   0.000000   0.000000 )  
               a(2) = (   0.000000   1.000000   0.000000 )  
               a(3) = (   0.000000   0.000000   1.036796 )  

     reciprocal axes: (cart. coord. in units 2 pi/alat)
               b(1) = (  1.000000  0.000000  0.000000 )  
               b(2) = (  0.000000  1.000000  0.000000 )  
               b(3) = (  0.000000  0.000000  0.964510 )  


     PseudoPot. # 1 for H  read from file:
     /users/bkreitz1/quantum-espresso/potentials/H.pbe-kjpaw_psl.1.0.0.UPF
     MD5 check sum: ae98473e6dc62675f0d0baffdab24f65
     Pseudo is Projector augmented-wave, Zval =  1.0
     Generated using 'atomic' code by A. Dal Corso  v.6.7MaX
     Shape of augmentation charge: PSQ
     Using radial grid of  929 points,  2 beta functions with: 
                l(1) =   0
                l(2) =   0
     Q(r) pseudized with 0 coefficients 


     atomic species   valence    mass     pseudopotential
        H              1.00     1.00800     H ( 1.00)

     No symmetry found



   Cartesian axes

     site n.     atom                  positions (alat units)
         1           H   tau(   1) = (   0.5000000   0.5000000   0.5367959  )
         2           H   tau(   2) = (   0.5000000   0.5000000   0.5005000  )

     number of k points=     1  Gaussian smearing, width (Ry)=  0.0050
                       cart. coord. in units 2pi/alat
        k(    1) = (   0.0000000   0.0000000   0.0000000), wk =   2.0000000

     Dense  grid:  1757245 G-vectors     FFT dimensions: ( 192, 192, 200)

     Estimated max dynamical RAM per process >       2.00 GB

     Initial potential from superposition of free atoms

     starting charge    1.99998, renormalised to    2.00000

     negative rho (up, down):  7.708E-04 0.000E+00


     %%%%%%%%%%%%%%%%%%%%%%%%%%%%%%%%%%%%%%%%%%%%%%%%%%%%%%%%%%%%%%%%%%%%%%%%
     %                                                                      %
     % You are using vdW-DF, which was implemented by the Thonhauser group. %
     % Please cite the following two papers that made this development      %
     % possible and the two reviews that describe the various versions:     %
     %                                                                      %
     %   T. Thonhauser et al., PRL 115, 136402 (2015).                      %
     %   T. Thonhauser et al., PRB 76, 125112 (2007).                       %
     %   K. Berland et al., Rep. Prog. Phys. 78, 066501 (2015).             %
     %   D.C. Langreth et al., J. Phys.: Condens. Matter 21, 084203 (2009). %
     %                                                                      %
     %                                                                      %
     % If you are calculating the stress with vdW-DF, please also cite:     %
     %                                                                      %
     %   R. Sabatini et al., J. Phys.: Condens. Matter 24, 424209 (2012).   %
     %                                                                      %
     %%%%%%%%%%%%%%%%%%%%%%%%%%%%%%%%%%%%%%%%%%%%%%%%%%%%%%%%%%%%%%%%%%%%%%%%


     Starting wfcs are    2 randomized atomic wfcs +    3 random wfcs
     Checking if some PAW data can be deallocated... 

     total cpu time spent up to now is       55.8 secs

     Self-consistent Calculation

     iteration #  1     ecut=    60.00 Ry     beta= 0.70
     CG style diagonalization
     ethr =  1.00E-02,  avg # of iterations =  5.8

     negative rho (up, down):  1.017E-04 0.000E+00

     total cpu time spent up to now is       92.8 secs

     total energy              =      -2.43647772 Ry
     estimated scf accuracy    <       0.13928339 Ry

     iteration #  2     ecut=    60.00 Ry     beta= 0.70
     CG style diagonalization
     ethr =  6.96E-03,  avg # of iterations =  3.0

     negative rho (up, down):  6.334E-06 0.000E+00

     total cpu time spent up to now is      126.0 secs

     total energy              =      -2.41935494 Ry
     estimated scf accuracy    <       0.03226624 Ry

     iteration #  3     ecut=    60.00 Ry     beta= 0.70
     CG style diagonalization
     ethr =  1.61E-03,  avg # of iterations =  3.2

     negative rho (up, down):  1.380E-02 0.000E+00

     total cpu time spent up to now is      239.8 secs

     total energy              =      -2.42411847 Ry
     estimated scf accuracy    <       0.00287731 Ry

     iteration #  4     ecut=    60.00 Ry     beta= 0.70
     CG style diagonalization
     ethr =  1.44E-04,  avg # of iterations =  8.0

     negative rho (up, down):  1.879E-02 0.000E+00

     total cpu time spent up to now is      280.5 secs

     total energy              =      -2.42306464 Ry
     estimated scf accuracy    <       0.00236054 Ry

     iteration #  5     ecut=    60.00 Ry     beta= 0.70
     CG style diagonalization
     ethr =  1.18E-04,  avg # of iterations =  3.2

     negative rho (up, down):  2.705E-02 0.000E+00

     total cpu time spent up to now is      314.0 secs

     total energy              =      -2.42364048 Ry
     estimated scf accuracy    <       0.00027165 Ry

     iteration #  6     ecut=    60.00 Ry     beta= 0.70
     CG style diagonalization
     ethr =  1.36E-05,  avg # of iterations =  8.4

     negative rho (up, down):  1.259E-02 0.000E+00

     total cpu time spent up to now is      353.5 secs

     total energy              =      -2.42352934 Ry
     estimated scf accuracy    <       0.00003594 Ry

     iteration #  7     ecut=    60.00 Ry     beta= 0.70
     CG style diagonalization
     ethr =  1.80E-06,  avg # of iterations =  9.4

     negative rho (up, down):  1.061E-02 0.000E+00

     total cpu time spent up to now is      394.9 secs

     total energy              =      -2.42351385 Ry
     estimated scf accuracy    <       0.00003378 Ry

     iteration #  8     ecut=    60.00 Ry     beta= 0.70
     CG style diagonalization
     ethr =  1.69E-06,  avg # of iterations =  6.8

     negative rho (up, down):  4.076E-03 0.000E+00

     total cpu time spent up to now is      432.5 secs

     total energy              =      -2.42351278 Ry
     estimated scf accuracy    <       0.00000598 Ry

     iteration #  9     ecut=    60.00 Ry     beta= 0.70
     CG style diagonalization
     ethr =  2.99E-07,  avg # of iterations =  5.8

     negative rho (up, down):  1.252E-03 0.000E+00

     total cpu time spent up to now is      459.4 secs

     End of self-consistent calculation

          k = 0.0000 0.0000 0.0000 (219557 PWs)   bands (ev):

   -10.8575  -0.2469  -0.0620   0.0339   0.1308

     the Fermi energy is    -5.3634 ev

!    total energy              =      -2.42351680 Ry

     total all-electron energy =        -2.423508 Ry
     estimated scf accuracy    <       0.00000047 Ry
     smearing contrib. (-TS)   =      -0.00000000 Ry
     internal energy E=F+TS    =      -2.42351680 Ry

     The total energy is F=E-TS. E is the sum of the following terms:
     one-electron contribution =      -4.46466008 Ry
     hartree contribution      =       2.37611447 Ry
     xc contribution           =      -1.49597582 Ry
     ewald contribution        =       1.16152020 Ry
     one-center paw contrib.   =      -0.00051556 Ry

     convergence has been achieved in   9 iterations

     Forces acting on atoms (cartesian axes, Ry/au):

     atom    1 type  1   force =     0.00000001    0.00000002    0.01435352
     atom    2 type  1   force =    -0.00000001   -0.00000002   -0.01435352

     Total force =     0.020299     Total SCF correction =     0.000032

     negative rho (up, down):  1.252E-03 0.000E+00

     negative rho (up, down):  1.252E-03 0.000E+00

     negative rho (up, down):  1.252E-03 0.000E+00

     negative rho (up, down):  1.252E-03 0.000E+00

     negative rho (up, down):  1.252E-03 0.000E+00

     negative rho (up, down):  1.252E-03 0.000E+00

     negative rho (up, down):  1.252E-03 0.000E+00

     negative rho (up, down):  1.252E-03 0.000E+00

     negative rho (up, down):  1.252E-03 0.000E+00

     negative rho (up, down):  1.252E-03 0.000E+00

     negative rho (up, down):  1.252E-03 0.000E+00

     negative rho (up, down):  1.252E-03 0.000E+00

     negative rho (up, down):  1.252E-03 0.000E+00

     negative rho (up, down):  1.252E-03 0.000E+00

     negative rho (up, down):  1.252E-03 0.000E+00

     negative rho (up, down):  1.252E-03 0.000E+00

     negative rho (up, down):  1.252E-03 0.000E+00

     negative rho (up, down):  1.252E-03 0.000E+00

     negative rho (up, down):  1.252E-03 0.000E+00

     negative rho (up, down):  1.252E-03 0.000E+00

     negative rho (up, down):  1.252E-03 0.000E+00

     negative rho (up, down):  1.252E-03 0.000E+00

     negative rho (up, down):  1.252E-03 0.000E+00

     negative rho (up, down):  1.252E-03 0.000E+00

     negative rho (up, down):  1.252E-03 0.000E+00

     negative rho (up, down):  1.252E-03 0.000E+00

     negative rho (up, down):  1.252E-03 0.000E+00

     negative rho (up, down):  1.252E-03 0.000E+00

     negative rho (up, down):  1.252E-03 0.000E+00

     negative rho (up, down):  1.252E-03 0.000E+00

     negative rho (up, down):  1.252E-03 0.000E+00

     negative rho (up, down):  1.252E-03 0.000E+00

     negative rho (up, down):  1.252E-03 0.000E+00

     negative rho (up, down):  1.252E-03 0.000E+00
 BEEFens 2000 ensemble energies
             -0.123371097975852E+00
              0.780403710936808E-02
             -0.179822771150253E-01
              0.787257225875597E-01
             -0.436308604167262E-01
             -0.207114291384857E-01
             -0.906421617127930E-01
             -0.183808011654618E+00
             -0.473475046723861E-01
             -0.632592132211000E-01
             -0.549626188445833E-01
              0.466714793296169E-02
             -0.144651078870464E-02
             -0.658969349690186E-02
              0.330409331897477E-02
              0.867099460384524E-01
             -0.368342823851933E-01
             -0.477491303354914E-02
              0.598707585243079E-01
             -0.198535120673593E+00
              0.924214138363343E-01
             -0.349134669864990E-01
             -0.138832365105261E-01
             -0.162220023291635E-01
              0.139259448184439E-01
             -0.546687381819566E-02
              0.170082341582591E+00
             -0.363627961294586E-01
             -0.329032651073746E-02
             -0.999675281486952E-01
              0.124390903353189E+00
              0.419047541202477E-02
             -0.809545158828645E-01
              0.183251467516586E-01
             -0.535751384661148E-02
              0.643108156085742E-01
              0.905794576610608E-03
             -0.923584335110769E-02
              0.855991653217574E-01
             -0.179128002369684E+00
              0.105202659476522E+00
              0.133477445735395E-01
             -0.289670272568844E-01
             -0.369463140346449E-01
              0.284858395319544E-01
             -0.264329857584829E-01
              0.102352177676497E+00
              0.654796611184461E-01
             -0.338449195118882E-01
             -0.618010825183332E-01
             -0.617702542797909E-01
             -0.759333598538534E-01
              0.648391468239590E-01
             -0.918807642066313E-01
              0.260963547985035E-01
              0.105212585101779E+00
              0.137404554989939E+00
              0.591203137931403E-01
              0.290134182701678E-01
              0.609280194709301E-01
              0.179536306945736E+00
              0.307224841586288E-01
             -0.101020885392863E+00
             -0.194716181581843E-01
             -0.659950034202346E-01
              0.111147647843462E+00
             -0.128832057029572E+00
             -0.115416458371228E+00
             -0.747372765561376E-01
             -0.419643152548370E-01
             -0.589262986196108E-01
              0.565307734032111E-01
              0.415667862032294E-01
              0.284336117930156E-01
             -0.810929932025116E-01
             -0.613309421760041E-01
             -0.104795780497985E+00
              0.577725681404473E-01
             -0.636442370337135E-01
              0.745358356988544E-01
             -0.226819456803570E-01
             -0.572977014416312E-01
             -0.794988170122487E-01
             -0.247360527128933E-01
             -0.388433576517148E-01
             -0.192619165553159E-01
              0.761297663832817E-01
              0.149082747341544E+00
             -0.781439539776643E-01
             -0.133955229134770E+00
             -0.326325590307998E-01
              0.197950502981534E+00
             -0.107502636852705E+00
              0.576905389867262E-01
             -0.739809192944318E-02
             -0.108669638364102E+00
              0.558547943013626E-01
              0.451007396335769E-01
             -0.237079251605612E-01
              0.507492844091226E-01
             -0.543065722718619E-01
             -0.112478522972167E+00
              0.200087940513196E+00
              0.753173923702095E-01
              0.271586683464000E-01
              0.888079728890617E-02
              0.259851644223520E-01
              0.147295531333804E+00
             -0.574679922875596E-01
              0.127363129586053E-02
             -0.256876596078543E+00
              0.367888014979577E-01
             -0.122360385714003E+00
              0.193498888470390E-01
              0.362221937869314E-01
             -0.615647772535165E-01
             -0.931835584091657E-01
              0.618857370714476E-02
             -0.645554495485444E-01
              0.867280852547402E-01
             -0.698669158177395E-01
             -0.277470916094806E-01
             -0.756600450358856E-01
              0.755121680386717E-02
              0.130050644281630E-01
              0.435545935270472E-01
              0.669004311860200E-02
             -0.149700968766218E-01
              0.127262653153731E+00
              0.168900622322143E+00
              0.948217284131422E-01
              0.104883436621335E+00
             -0.300705274059206E-01
              0.364144358253993E-03
              0.827197736648548E-01
              0.232858607530595E-01
             -0.139176130016563E+00
             -0.936508392186353E-01
             -0.940765683811749E-01
             -0.578130090153482E-01
              0.483833746747915E-01
             -0.224763619582961E+00
             -0.177559809463586E-01
              0.798752043836649E-01
             -0.865466772337670E-01
             -0.609469007918177E-01
              0.101026756411202E+00
              0.103089504831738E+00
             -0.498783961476533E-01
              0.784106696763866E-01
             -0.507213922698990E-01
              0.751207110725240E-01
              0.151662253034971E-01
              0.146485216869938E-01
             -0.148676832411046E+00
             -0.860859895463686E-01
             -0.195068714879544E-01
             -0.267654785273293E-01
             -0.721336794792011E-01
              0.218613728394448E+00
             -0.302303759942946E-02
             -0.472567238066432E-01
              0.685602563691455E-01
             -0.732112522310780E-01
             -0.744407855959643E-01
              0.601098405582249E-01
              0.201457372656253E-01
              0.925844921693408E-02
              0.314749742058740E-01
             -0.207385198435672E-01
              0.926523120187039E-02
              0.104787241772534E+00
             -0.436916520247048E-01
              0.426255786933478E-01
              0.162772275992835E+00
              0.567114713560761E-01
              0.896944492966523E-02
             -0.348229952422395E-01
              0.274310659771144E+00
             -0.576165379109917E-01
              0.845850790912554E-01
              0.658024868468240E-01
              0.436788714518111E-01
              0.176639335181169E+00
              0.776665991803867E-01
             -0.183689954569771E-02
              0.408150670929340E-01
              0.104901728035798E+00
              0.576223120415569E-01
             -0.112571155732539E+00
              0.182345115104306E+00
             -0.171386435783939E+00
             -0.129225745275047E-01
              0.982436294173371E-01
              0.362757709147222E-01
              0.388775078207781E-02
              0.427928853396429E-01
              0.246872684436996E-01
              0.462476405822428E-01
             -0.109734397857231E+00
              0.767160258201371E-02
             -0.388652619448942E-01
              0.548411280974082E-02
             -0.413887752141817E-02
             -0.332562584874029E-01
             -0.129838753477976E-01
              0.157959324176030E+00
              0.322953707267704E-03
             -0.560703020809372E-01
             -0.375297690569301E-02
              0.280589045461139E-01
             -0.119666349893949E+00
             -0.112238451982642E+00
             -0.544258087360839E-01
             -0.115813555980193E+00
             -0.326628240072511E-01
             -0.711967252678508E-01
              0.240646846668591E-01
              0.104425903940231E-02
             -0.235701291480174E-01
             -0.125836627375359E-01
              0.119272291397571E-01
             -0.313174937899379E-01
              0.119036096996631E+00
             -0.165141552077577E+00
             -0.135224321312921E-01
             -0.242705361111305E-01
              0.334547950920548E-01
              0.434612886378547E-01
             -0.101149288569451E+00
             -0.140810471586372E-01
              0.869203099608318E-01
             -0.420894544221565E-01
              0.196988246177769E-01
              0.643908603349688E-01
              0.413706086218013E-02
              0.211781642530266E+00
             -0.702215485457069E-02
             -0.769057433993460E-01
             -0.177072460798781E-01
             -0.681215766515783E-01
              0.815709243241428E-01
             -0.111985212517523E+00
              0.438416147314464E-01
              0.579258914392038E-01
             -0.221306482863327E-01
              0.215663049897016E+00
              0.221446034164756E+00
             -0.152164112025724E+00
              0.107053566247148E+00
              0.495774471083583E-01
             -0.102481828704499E+00
              0.389918121910912E-01
              0.878861323866160E-01
              0.903686289331178E-01
              0.125543954304720E-01
              0.597334890811967E-01
              0.141053665305302E+00
             -0.443474742662750E-01
              0.102352061958389E-01
              0.997203635325373E-01
             -0.590609303713863E-01
             -0.542686900592205E-01
              0.122837086820202E+00
              0.639218209376511E-01
              0.139468205240543E+00
              0.786770603540703E-01
              0.342186768477412E-01
              0.326549915126104E-01
              0.891680874595636E-01
             -0.101459240492872E+00
              0.126527841794049E-01
              0.636407653386943E-01
              0.501057208699540E-02
              0.518022326401490E-01
             -0.126680878985673E+00
              0.626864139371586E-01
             -0.772928370952722E-01
             -0.594694190977696E-01
              0.404238619946012E-01
             -0.149383245585769E-01
              0.118175413106711E+00
             -0.214996502081168E-01
              0.461113604164682E-01
              0.520287753543578E-01
              0.140466435956866E+00
              0.965831343814257E-01
              0.104991931714331E+00
             -0.206991018832325E-02
             -0.255763314209336E-01
             -0.549602271640431E-01
              0.160199190949172E+00
              0.156788504145045E+00
              0.648685397011690E-01
             -0.572205785940724E-01
              0.897064096811744E-01
              0.816920697211204E-02
              0.310878719397954E-01
              0.139021599160195E+00
             -0.131229616110395E-01
             -0.238915378145638E-01
             -0.493971297657970E-01
             -0.126463167962196E+00
              0.180751566892798E+00
              0.965475673731395E-01
             -0.128881688007945E+00
             -0.415792080391020E-01
              0.338217128239612E-01
             -0.245767544916820E-01
              0.116931566546782E+00
              0.347634325700206E-01
              0.148428218574619E+00
              0.490525848008187E-01
             -0.313851739666087E-01
              0.191463638700213E-01
             -0.153772087181487E-01
             -0.338871866193784E-01
              0.344555253086897E-01
              0.357550727640323E-01
              0.169036324906614E+00
              0.131453672549743E+00
              0.116334603273061E+00
              0.135663479908144E+00
              0.230623012123154E-01
             -0.575059829461222E-01
              0.215948493370029E-01
             -0.584486358642164E-01
             -0.108388294478814E+00
             -0.936863091553268E-01
             -0.617650476602703E-01
             -0.208208726469667E+00
             -0.774973455287077E-01
             -0.154801043252476E+00
              0.310643183564841E-01
             -0.842003738149097E-01
              0.107498015573280E+00
             -0.178772549452047E+00
             -0.553182024726344E-01
              0.602543277498956E-01
              0.373531918376153E-01
             -0.166534714001382E+00
              0.868344267744214E-01
             -0.562229389716752E-01
              0.103650003860045E+00
             -0.493517594739148E-01
             -0.128317300319708E+00
              0.363459346263040E-01
             -0.107005057061053E+00
              0.407871206929578E-02
             -0.790298492135774E-02
              0.715180491398425E-01
              0.233186931650291E+00
             -0.785514420650155E-01
             -0.683431942012673E-01
             -0.304206411887885E-01
             -0.481737764757290E-02
             -0.140880462902561E+00
             -0.111593012036535E+00
              0.100258668514603E+00
             -0.206039300091548E-01
              0.444856532484759E-01
             -0.872158244661417E-01
             -0.218235006425389E-01
             -0.818461401005161E-01
              0.806470603146634E-01
              0.236683375786181E-01
             -0.545757896769352E-01
             -0.326381872310466E-01
              0.306589268120706E-01
             -0.100975246526523E-01
              0.539297263653578E-01
             -0.553326228032783E-01
              0.264333183007808E-01
              0.659795125513841E-01
              0.174279327644816E-01
             -0.525848343990367E-01
              0.290502203877143E+00
              0.118031966635404E+00
              0.213480700139761E-01
              0.631014105130701E-02
             -0.110092765297551E+00
              0.631513834464417E-01
             -0.138327867340994E+00
             -0.720722194139081E-01
             -0.124857561822202E+00
             -0.355660157631157E-01
              0.119522959771587E+00
             -0.111887467896370E+00
              0.521013616301603E-01
             -0.172010441194315E-01
             -0.269268495278011E-02
             -0.513914703796228E-01
             -0.743521971863190E-01
             -0.342298427917679E-01
             -0.506683661465153E-01
             -0.334505696526949E-01
             -0.631169937065132E-01
              0.113941844342366E-02
             -0.495050484760402E-01
             -0.802056097491089E-01
              0.408690633008617E-01
             -0.100945883335202E-01
              0.485905586943124E-01
              0.194129617853099E-01
             -0.138222470116138E+00
             -0.893673050912860E-01
             -0.107803425731965E+00
              0.463201838628091E-01
             -0.183492857021979E-01
             -0.104896756572750E+00
              0.106951871395651E+00
             -0.848240858231124E-01
              0.105984819387109E+00
             -0.565580800444680E-01
             -0.897289948187718E-01
              0.424951751764580E-01
             -0.133704383545457E+00
             -0.520204608367422E-01
              0.116837592923358E+00
              0.526231140008528E-01
             -0.778937550898151E-01
              0.115993222247697E+00
             -0.245613831178612E-01
             -0.623927714079002E-01
             -0.524799951159521E-01
             -0.108325039965678E+00
              0.534276166235418E-01
             -0.168995799998863E+00
             -0.138387755517000E+00
             -0.337393822706955E-02
             -0.540349373508313E-01
             -0.124278472040851E+00
              0.142512450215535E+00
              0.262964815602956E+00
             -0.258053881659413E-01
             -0.567287302999886E-02
             -0.117239806684121E+00
              0.124548067238335E+00
              0.393474278012468E-01
             -0.316579900432070E-01
             -0.704727140895385E-01
              0.149883359551340E-01
             -0.104903132992472E+00
             -0.557676677335084E-02
             -0.151355010732430E+00
              0.452716034214734E-01
              0.303990631143912E-01
             -0.718316118187545E-02
             -0.330491451754743E-01
             -0.778239151719103E-01
             -0.384772669633526E-01
              0.269616392071456E+00
             -0.239685063471683E-01
             -0.949822896598432E-01
             -0.128322994205946E+00
              0.292417593151459E-01
             -0.724617108069934E-01
              0.120265695992876E-01
              0.617043907219520E-01
              0.138533840279961E-01
              0.812222476844322E-01
              0.462681989700928E-01
              0.115045252173447E+00
              0.401227924028294E-01
             -0.697086356985095E-01
              0.104274295576249E+00
              0.673367004717134E-01
              0.243229806819728E-01
              0.684285119294937E-01
             -0.598500738724268E-01
              0.128835069275121E+00
              0.522603528374605E-01
             -0.656384494544559E-01
             -0.201898944425417E-01
             -0.272790615563734E-01
              0.215412081248917E-01
             -0.421121850707939E-01
             -0.312256400418283E-01
             -0.187518821516299E-01
              0.144387229697128E+00
              0.114133283184490E+00
             -0.114163206754240E+00
             -0.190040452887730E-01
             -0.920798242450945E-01
             -0.184386039399047E-01
             -0.453933884763157E-01
              0.182475818785365E-01
             -0.470577271491216E-02
             -0.567301492030952E-01
              0.295764091269204E-01
             -0.184118003558956E-01
             -0.137519989746088E-01
              0.157248608231503E+00
              0.234134656019239E-01
             -0.161933658282420E+00
             -0.816790904441896E-01
              0.178803473501628E+00
              0.322069670190109E-01
             -0.177480235611198E-01
              0.205089853841452E+00
             -0.260957527012904E-01
             -0.127883615651780E-01
             -0.407718844367352E-01
              0.305575242505187E-01
              0.677065675329958E-01
              0.916583067194526E-02
              0.562916746691184E-01
             -0.183812600965014E-01
             -0.843796679258494E-01
             -0.683514779064798E-01
             -0.880215966878501E-01
              0.856962469255850E-01
              0.321101698760361E-01
              0.713136253860456E-01
              0.395827407329520E-01
              0.169806308486425E+00
              0.313342277068955E-01
             -0.138179875774239E+00
             -0.635797135725100E-01
             -0.318797642158433E-02
             -0.529204727317386E-01
              0.118585699730706E+00
             -0.173893340356348E-01
              0.199576940847409E-01
              0.102471669547528E+00
             -0.155327123971844E+00
              0.271085751875921E+00
              0.414790073583152E-01
              0.484860210535082E-01
              0.751079048883049E-01
             -0.395329266893529E-02
             -0.100217854482576E-01
              0.532526394656286E-01
             -0.675301955232910E-01
              0.163896613377827E+00
              0.147081466227278E+00
             -0.634937685954534E-01
              0.391096090048327E-01
              0.127794204337751E+00
             -0.385344617199957E-01
              0.483108673033475E-01
              0.504339285015123E-01
              0.796202132002446E-01
             -0.127664342207069E+00
             -0.196585731647225E-02
             -0.316503415265039E-01
             -0.166781406158663E-01
             -0.256266813099295E-01
              0.235874247520740E-01
             -0.304990456193713E-01
             -0.504842703134667E-01
              0.408022951952147E-01
              0.979526180054577E-02
              0.998803805255416E-01
             -0.885570000051155E-01
              0.849454984570764E-01
              0.111842905247260E+00
             -0.951868924677968E-03
              0.111382512599778E+00
             -0.121149778534112E+00
             -0.187784800231602E+00
             -0.104301340197496E-01
             -0.235755831712103E-02
              0.152869499043410E-01
              0.141984458593441E+00
              0.229828494017571E-02
              0.792662913126921E-01
              0.119156239309058E+00
              0.805662300531392E-01
             -0.941213327851909E-03
              0.111228881759408E+00
             -0.349460982602298E-01
             -0.715176603350038E-01
             -0.678668586803882E-01
              0.134678055296984E-01
              0.640968273370208E-01
             -0.968912367808800E-02
              0.616275894611993E-01
              0.646156806423687E-02
              0.894107651678120E-01
              0.205094945926851E-01
              0.135604175054737E-01
             -0.823770317249717E-02
              0.468416112507051E-01
              0.760565493641787E-01
              0.248559524523842E-01
             -0.606745974357945E-02
             -0.978662509781009E-01
              0.485572027502949E-01
              0.376085189773703E-01
              0.591728595214111E-01
              0.512807145287618E-01
              0.652271623394520E-01
             -0.119238011206670E-01
              0.674405929803928E-01
             -0.762266947622967E-01
             -0.595477456046767E-02
             -0.100151167145205E+00
             -0.645889279404304E-01
              0.835681940732062E-01
             -0.166651837543006E+00
              0.405912777625594E-01
              0.298681742439951E-01
              0.176569704666257E+00
             -0.154459239510589E-01
              0.684717133802573E-01
             -0.318395328681036E-01
             -0.897008688621468E-01
             -0.122217437603177E+00
             -0.373677855954520E-01
             -0.180686273820165E+00
              0.180177199287905E-01
             -0.425652637876946E-01
              0.631739913524283E-01
              0.625259218594856E-01
             -0.520283979168804E-01
             -0.629659729018521E-01
              0.864491424319198E-01
             -0.996402299599808E-01
             -0.306774060491056E-01
             -0.207896935922763E-01
              0.452326230407758E-01
              0.948392260250197E-02
              0.662649708461921E-02
             -0.190806090680793E-01
              0.965211850670418E-01
             -0.131744794338351E+00
              0.128250429357843E-01
              0.110862140043806E+00
             -0.574147029550899E-01
              0.741226640966758E-02
             -0.620356078212791E-02
             -0.121839195585321E+00
             -0.695418687869183E-01
              0.321689710799745E-02
              0.661894788240977E-01
              0.672132136227000E-01
              0.180320053972687E-01
             -0.199270118312045E-01
              0.221613273826036E-01
             -0.730244144492155E-01
             -0.990514505837176E-02
             -0.107481033352956E+00
             -0.539556492069920E-01
              0.914149511567510E-01
             -0.602085686019235E-01
              0.133513009491083E+00
             -0.501234714722954E-01
              0.544180159053029E-01
              0.528110919662383E-01
             -0.107258890037817E+00
             -0.444615907868622E-01
              0.177897174801510E-01
             -0.780372878343485E-01
             -0.868072107472048E-01
             -0.169755669690465E+00
             -0.107463575539214E+00
             -0.825699639453215E-01
             -0.774138171495817E-01
             -0.411077083559985E-02
              0.555935592243219E-01
              0.374515547864528E-01
              0.541718220262064E-01
             -0.115462640479545E+00
              0.183686924203751E-01
              0.724274050655421E-01
             -0.130799217939041E+00
             -0.100360300276062E+00
             -0.773051451736786E-01
             -0.672812071400020E-01
              0.188685734624754E-01
              0.167501223964583E-02
             -0.595300421224647E-01
              0.479916949802288E-01
             -0.408259726654156E-01
              0.108183584537954E+00
             -0.156561337938307E+00
              0.117854533392840E+00
             -0.259384327195716E-01
             -0.102037068968545E+00
             -0.443690064545590E-01
             -0.164790556995363E-01
              0.812694031512701E-01
             -0.122736922457258E+00
             -0.189722518918609E-01
             -0.285942046162776E-01
              0.753123659237998E-01
              0.145984429574509E+00
             -0.199045161960127E+00
              0.169177448177849E+00
              0.585337590790314E-01
             -0.142077803233844E+00
             -0.561800201999183E-01
              0.149567617136864E+00
              0.111847959428204E+00
             -0.471084291763553E-01
             -0.142680406509149E-01
              0.380506261317558E-01
              0.146203243117368E+00
             -0.111872100724484E+00
              0.253547806779865E-01
             -0.701236951301328E-02
              0.519732768387150E-01
             -0.127777034235454E+00
              0.181752070070124E-03
             -0.462572249016814E-01
              0.852117699631489E-01
              0.614525200456555E-01
             -0.178397834563865E+00
             -0.859548666325807E-01
             -0.413172782060314E-01
             -0.780613870652233E-01
             -0.203548148328340E-01
             -0.253609089789450E-01
              0.970292426187599E-01
              0.753477169234787E-01
             -0.201848433976914E-02
             -0.720782043117243E-01
             -0.174794258383947E+00
              0.104620914929064E+00
             -0.823372673040943E-01
             -0.657935923623669E-01
              0.200234493519889E-01
             -0.702853700553090E-01
             -0.735040693624074E-01
             -0.671157480820564E-01
             -0.103362114884451E+00
             -0.302846533647098E-01
             -0.792662607878211E-01
              0.998859250666314E-01
              0.102746446662039E+00
             -0.249641744541979E-01
             -0.322081444634862E-01
             -0.231444322366436E-02
              0.670751917038725E-01
             -0.155005100284949E+00
             -0.406141805576369E-01
              0.106345040972152E+00
              0.135813910848755E+00
             -0.201029061885547E-01
              0.921056009722088E-02
              0.965990783069121E-01
              0.315586201906179E-01
              0.142955699885450E-01
             -0.568981978406449E-01
              0.216878715911379E-01
             -0.541476918176461E-01
             -0.174571812326121E-01
             -0.384578893941379E-01
             -0.243474015786051E-01
              0.507214488753836E-01
              0.160902125714253E+00
             -0.230514685502128E-01
              0.161066840881952E-02
             -0.173204489612507E+00
             -0.344189743655530E-01
             -0.623368334560256E-01
             -0.668377731792580E-02
             -0.870706631783129E-01
              0.167668690366566E+00
              0.171700750102050E+00
              0.438561971028886E-01
             -0.550747877702960E-01
              0.362025295417671E-01
              0.442636516025859E-01
             -0.832671408499028E-01
             -0.262025962195047E-01
              0.359702921879357E-01
              0.138849232362408E-01
              0.831084780365047E-01
              0.631318994214707E-01
             -0.293608355148132E-01
              0.338476877810613E-01
             -0.189574030544794E+00
             -0.307836074817582E-02
              0.171918760439243E+00
              0.454052291494340E-01
             -0.453726320765235E-03
              0.458771758927959E-01
             -0.341720006822638E-01
              0.159556856796030E+00
             -0.456579698083035E-01
              0.147544708651599E+00
              0.737733114495711E-01
             -0.101516372959506E+00
              0.659903576986617E-01
             -0.473730524295222E-01
             -0.119686277351758E+00
             -0.160064921548626E-01
             -0.970697600028275E-01
             -0.105588317394710E+00
              0.534445291721702E-02
              0.710816792797108E-01
             -0.314378659249738E-01
             -0.653450611436120E-01
              0.112200695127630E-01
             -0.118258587453253E+00
              0.181840932765489E-02
             -0.176501845435823E+00
              0.934889980678695E-01
             -0.483316106015666E-02
             -0.883088055051780E-01
             -0.355191592897319E-01
              0.303498147273304E-01
             -0.751863681272129E-01
             -0.741283046734576E-01
              0.169156866496546E+00
             -0.547659711895379E-01
             -0.716966356987359E-01
              0.769032608269155E-01
             -0.533034510892603E-01
              0.102216548942756E+00
             -0.240274621872150E-03
             -0.755223174330305E-02
              0.208421619143411E+00
             -0.143241409944285E-01
             -0.679556287617992E-01
             -0.827178913084903E-01
             -0.102723474535204E+00
             -0.738633683717742E-01
              0.414872913793926E-01
              0.690714506857987E-01
              0.586813346402132E-01
              0.131565788494618E+00
              0.698999213554913E-02
              0.469722276804253E-01
             -0.106017118407139E+00
             -0.440211392327583E-02
             -0.321296857154078E-01
             -0.706725588204244E-01
             -0.790790050879731E-02
              0.565101647361739E-01
              0.757229907554166E-01
             -0.121576282255704E-01
              0.248299971590119E-01
              0.569490621881728E-01
              0.658006037398540E-01
             -0.321940886948968E-01
             -0.128106236376800E-01
             -0.359971727897182E-02
             -0.571156110188082E-01
             -0.107406139856607E-01
             -0.787973188872415E-01
              0.146606853942265E+00
              0.118125039305010E+00
             -0.565770685285686E-01
              0.374260356689574E-01
             -0.162319579721011E-01
             -0.672919099146582E-01
              0.679728358576584E-01
             -0.169138912888931E-01
              0.529597290414541E-01
             -0.796241600726759E-01
              0.297570999500707E-01
             -0.200984442765734E-01
             -0.945063519301873E-01
             -0.525598208270308E-01
              0.380789434378986E-01
             -0.197300792466878E+00
              0.550325421748156E-01
              0.793198135537385E-01
             -0.181344500205899E-01
             -0.130317303802358E-01
             -0.670117171657325E-02
              0.405152446326746E-01
             -0.725513608327866E-01
              0.609382917020096E-01
              0.534740390876011E-01
             -0.169009590212291E+00
             -0.625883402456799E-01
              0.474760631469422E-01
             -0.185064830904733E-01
              0.996563808037299E-01
             -0.112805604360142E+00
             -0.349314085872425E-01
             -0.684271378252163E-01
             -0.251458202327511E+00
              0.148566592312415E+00
             -0.101747276651435E+00
             -0.131326077648138E+00
              0.140022580154937E-01
              0.236104986149660E+00
              0.155164712353531E-01
             -0.718697171318375E-01
             -0.252733004937111E-03
              0.622860546737491E-03
             -0.151957121269834E+00
             -0.906703599986349E-01
              0.165110678852110E+00
             -0.371494748311562E-01
             -0.592587227088005E-01
              0.949318467139708E-01
             -0.569954568510059E-01
              0.532135057422645E-01
              0.919652983112560E-01
             -0.862131479264169E-01
             -0.506718109861852E-01
             -0.405114987059282E-01
             -0.384809998991479E-01
             -0.452611406715104E-01
             -0.511338772496032E-01
              0.360416988057746E-01
             -0.668815831511363E-01
              0.543826147924545E-01
              0.963437862948065E-01
              0.594029219318323E-03
             -0.403112210994284E-01
              0.373099321049138E-01
              0.100158912397882E+00
              0.955525428921674E-01
              0.293956211151878E-01
             -0.272867951731382E-01
             -0.277442493886918E-01
             -0.103099044230733E+00
              0.859871791452534E-01
             -0.456196201174078E-01
              0.406991615363061E-01
             -0.345127409630545E-01
              0.438135011737707E-01
              0.281172769976036E-01
             -0.153911338344964E+00
             -0.554386657049566E-01
             -0.145958906652942E+00
             -0.709427548093599E-01
             -0.171564869088944E-02
             -0.333023394875816E-01
              0.656222798832801E-01
             -0.501814381368058E-01
              0.706604586455334E-02
              0.723444116508987E-02
              0.125722991900971E+00
              0.623167038442939E-01
             -0.598811693655391E-01
             -0.194933609200466E-01
              0.341466623488035E-01
              0.677396639602461E-01
             -0.964087578812944E-03
              0.117429308420447E+00
              0.561195693756373E-01
              0.168042625849822E+00
              0.118496528895283E-01
              0.120539663631920E+00
             -0.418887052543163E-01
             -0.696312635599226E-01
              0.723230302856720E-02
              0.857983808592255E-02
              0.353992294133889E-01
             -0.538092797187342E-01
             -0.206080654961348E-01
              0.459088704347867E-01
             -0.972447276737087E-01
             -0.113423642068271E+00
              0.140031092734625E+00
             -0.153056606812976E-01
             -0.698384477743253E-01
             -0.165460669780778E-01
             -0.309322702994214E-01
              0.885827787369187E-01
              0.744905206978959E-01
             -0.442560395436221E-01
             -0.745008018794846E-04
             -0.464688937253915E-01
             -0.735846679882967E-01
             -0.256528088538310E-01
             -0.174159856017283E+00
              0.840644424984544E-02
             -0.119057226374287E+00
             -0.110569037499544E+00
             -0.704743274937462E-01
              0.482677098606573E-01
             -0.726146940595775E-01
              0.439250427813705E-01
             -0.128022356678795E+00
              0.237693481444257E-03
             -0.704677074546018E-01
              0.846483817603869E-02
              0.142945276411703E-01
              0.801282858438775E-01
             -0.502118020052047E-01
             -0.381716188363717E-01
              0.631327294909230E-01
              0.120685705201198E+00
              0.557560503112209E-01
              0.292510516034392E-01
             -0.145549357925341E+00
             -0.393892966025499E-01
             -0.509871399588842E-01
             -0.119995493882578E+00
              0.933578385429032E-01
             -0.703569094847901E-01
             -0.141081332962944E-01
             -0.650679844573835E-01
             -0.183209658861194E+00
              0.105896100776656E+00
             -0.489446447502836E-01
              0.732334881849067E-01
             -0.138137956374926E+00
              0.126036773864584E+00
              0.368802958550685E-02
             -0.406644038075061E-01
              0.214328529731868E-01
             -0.373112792770431E-01
             -0.120169807927158E+00
              0.360771597716609E-01
              0.875628343658370E-01
             -0.602292993517406E-02
             -0.561800902992330E-01
             -0.317703748742541E-01
              0.468156192306247E-01
              0.729922628720905E-01
              0.112669305255584E+00
              0.487695220266514E-01
             -0.377986173915629E-01
              0.194581695559209E+00
              0.258308113234589E-01
              0.102741074189006E+00
             -0.304547309909624E-01
              0.478076424024507E-01
              0.500555943367240E-01
             -0.126271106564887E+00
             -0.402714236547606E-01
             -0.733599486424133E-01
             -0.891153993515615E-01
             -0.201902621866454E-01
             -0.106651905040707E-01
             -0.101308545641290E+00
             -0.208805947239234E+00
             -0.446890760258733E-01
              0.300618207258531E-01
             -0.837190744353844E-03
              0.327482763520031E-01
              0.628679248851876E-01
              0.986785242366232E-02
              0.463826983644528E-01
             -0.839989000558971E-01
              0.860989014119071E-01
             -0.561904444273533E-01
             -0.123042594540525E+00
              0.229713400004652E-01
             -0.757146291846101E-01
             -0.776993454265239E-01
             -0.301010787482935E+00
             -0.153135884874298E-01
              0.164030994594766E+00
              0.683573133794274E-01
             -0.299119432990833E-01
             -0.945818056361075E-02
              0.873634785257464E-01
              0.113369178483966E+00
             -0.773418622122022E-01
             -0.123180738951351E-01
             -0.660865461463564E-01
             -0.665614485872607E-01
             -0.552185129308304E-01
              0.120898419436897E-01
              0.120683342162409E+00
             -0.127143372122324E+00
             -0.983096350275803E-01
              0.706928132661744E-02
             -0.289022924486010E-01
             -0.414468745951845E-01
             -0.160153584784495E+00
              0.125918328396520E+00
              0.384207478200026E-01
              0.767848766244351E-02
              0.926450149432824E-01
             -0.597235040552858E-01
              0.682314346930255E-01
              0.477365000767651E-01
             -0.305410112231436E-02
             -0.208709818766366E-01
              0.160014866395035E-01
             -0.280395768626609E-01
              0.902597533903978E-01
             -0.711362345798411E-01
              0.844948712922226E-01
              0.189642210969080E-01
              0.415832915920271E-01
              0.408410995733199E-01
             -0.142663356940640E+00
              0.260699233714810E-01
             -0.129745711267376E+00
             -0.884626189894823E-01
             -0.856387118465431E-01
             -0.103032753478416E+00
              0.113405311849878E-01
              0.407552853052636E-01
              0.877886929605568E-01
              0.110495489856357E-01
              0.308858516860074E-01
             -0.129202577882677E+00
             -0.534232683485634E-01
              0.612910611638203E-01
             -0.125332449065832E-01
             -0.113978172626329E-01
             -0.157166855734917E-01
              0.611984480250312E-01
             -0.172317851899896E+00
              0.248583052237408E-01
              0.358947566554069E-01
              0.684120791542822E-01
              0.624384767864969E-01
             -0.102965416874804E+00
              0.368600814723861E-01
              0.228188214985531E-01
              0.155721104293342E-01
              0.927770343037870E-02
             -0.552297342248750E-01
             -0.884912432160912E-01
              0.279389180346882E-01
              0.110416680374718E+00
             -0.104083471503389E-01
              0.229170954722421E-01
              0.155783041769684E-01
             -0.629961870282486E-01
             -0.648860877867851E-01
             -0.224903992189212E+00
             -0.748700529271772E-01
             -0.122933141642806E+00
             -0.224459068368335E-01
             -0.133432393671686E+00
              0.146536638713899E+00
             -0.722385361153365E-01
             -0.102828572513338E+00
             -0.303149413696193E+00
              0.121919449047405E+00
              0.329681337679691E-01
              0.251745416518616E-01
             -0.110400822606675E+00
              0.915023949410509E-02
             -0.339179428753908E-01
             -0.531873815589805E-01
              0.729864756698090E-03
              0.642622867731896E-01
              0.103425169950271E-01
             -0.344069782382183E-01
              0.113542031978480E-01
              0.391448754650336E-02
              0.666579025259451E-02
             -0.137802264286183E+00
              0.139966601593825E+00
             -0.705132506884591E-01
             -0.487999099962844E-01
             -0.101444465937069E+00
             -0.212161457702005E+00
             -0.354611042683226E-02
             -0.103507837517836E+00
             -0.334274549783637E-01
              0.598716078811475E-01
             -0.414102490023502E-01
             -0.244833271854803E-01
             -0.204871382465540E-01
             -0.389240634982098E-01
              0.381930780081108E-02
              0.103940461951610E+00
             -0.990932754325947E-01
              0.200045151536716E+00
             -0.550831763657244E-01
              0.601313511621604E-01
             -0.353464374970595E-01
              0.191035800992695E-01
             -0.221624364242705E-01
              0.757558709231492E-01
              0.113626490566026E+00
              0.304465113615256E-01
              0.797184745996486E-01
             -0.414424914216070E-01
             -0.151916759801177E-01
             -0.501273512220940E-01
              0.120859158872835E+00
              0.116004070851407E+00
              0.782202638348780E-01
             -0.214171617099799E-01
             -0.389358297537873E-01
              0.432702344264167E-01
             -0.572518566909207E-01
             -0.388732081804053E-01
             -0.797401493174033E-02
             -0.770114293728236E-01
              0.871448101554555E-01
             -0.303764035540177E-01
              0.578672655988827E-01
              0.454318724192969E-01
              0.233539865575922E-01
             -0.605779087843746E-01
              0.486042662109802E-01
             -0.202821965556459E-01
             -0.186531117674441E-01
              0.358361661893286E-02
             -0.967211160480469E-01
              0.148405196958474E+00
             -0.427067435015029E-01
              0.113840979435402E-01
              0.474650418712368E-01
              0.442623916856506E-01
              0.148068825462004E+00
             -0.420206862169673E-01
              0.141014665740488E+00
              0.126713967096837E+00
             -0.186065204057710E+00
              0.242145174445765E-02
             -0.299242102210726E-01
              0.263087407399552E-01
              0.175405505066568E-01
              0.320220344233180E-01
              0.120301359554384E+00
              0.185266238957516E+00
             -0.138330799935336E+00
              0.148326765931556E+00
             -0.187407499219487E+00
             -0.165758172563934E+00
             -0.286690077009502E-01
              0.133731906290657E-02
              0.159145030767365E+00
              0.648515392652034E-01
             -0.207713690596795E-01
             -0.143622456744466E+00
              0.111526962118095E+00
             -0.741970097575798E-01
             -0.528601234937420E-02
             -0.137555561644697E-01
              0.237862770776704E+00
             -0.312196370952948E-01
             -0.197687969151393E+00
              0.491896612913573E-01
             -0.287138582039561E+00
              0.250523676751355E-01
             -0.728055601250909E-01
             -0.315242600824016E-01
             -0.339180051954136E-01
             -0.105970652301883E+00
              0.609574121823226E-01
             -0.653232342315870E-01
             -0.137819512697970E-01
             -0.143419632457868E+00
              0.253971692378691E-02
             -0.953602670241066E-01
             -0.147534887241446E+00
             -0.190778182135200E+00
              0.230967515213559E-01
             -0.706382647348563E-01
              0.177302848652119E-01
             -0.239001559860227E-01
             -0.165792257322243E+00
             -0.113950552740123E+00
             -0.119143554325586E+00
             -0.114989184898836E+00
              0.981094060749564E-01
              0.385986159336393E-02
             -0.853889753012893E-01
             -0.527844024682653E-01
             -0.643081154910727E-01
              0.815595917381746E-01
             -0.461791544006398E-01
             -0.114906379734507E-02
             -0.708025512003330E-01
             -0.731053849997087E-01
             -0.793116958572560E-01
              0.718005926389625E-01
             -0.174432114732099E-01
             -0.171805617595668E+00
              0.141675259679556E+00
              0.743002023326120E-01
              0.320528109988405E-02
             -0.160232348567345E+00
             -0.137032775498474E+00
              0.102692420201245E-01
              0.114973979184831E-01
             -0.685887394733052E-01
             -0.762648211217787E-01
              0.577333649284154E-01
              0.143170508179341E-02
              0.500768375477253E-01
              0.908489313881871E-01
              0.707985429318769E-01
              0.330625806254380E-01
              0.318346812889952E-01
             -0.503124770934253E-01
             -0.305813574196782E-01
             -0.317152126769530E-01
             -0.745795948251876E-01
             -0.861288850545111E-01
             -0.101653671150930E+00
             -0.594940087563993E-01
             -0.209367091621876E-01
             -0.142663492196788E+00
             -0.293470348590766E-01
              0.771705966712883E-01
             -0.163906774636535E+00
              0.780314838059033E-01
              0.775553396974804E-01
             -0.134275985574923E+00
             -0.980702793818115E-01
             -0.502903241863121E-01
              0.722606216587970E-02
             -0.819629803540569E-01
              0.144181803189408E+00
              0.123281319196655E+00
             -0.154707386927941E+00
              0.742326743398967E-01
              0.700840998980639E-01
              0.292400981240780E-01
              0.245790422423480E-01
             -0.809237883316986E-01
             -0.324183328670701E-01
              0.601404186300691E-02
              0.387903056112832E-01
              0.723501228258294E-01
             -0.109724454620184E+00
             -0.282623160054411E-01
              0.248306887935039E-01
              0.395496664022510E-01
             -0.776497567477533E-01
              0.422325526930005E-01
             -0.454724886990155E-01
             -0.400343173192557E-01
             -0.179351259813831E-02
             -0.119152570350211E+00
             -0.944626059799487E-02
             -0.112131855540401E-01
             -0.220806644624406E-01
              0.370144580779639E-01
             -0.954185394008012E-01
              0.108334733983573E+00
             -0.443538141835459E-01
             -0.248420967359145E+00
             -0.160001575401663E+00
              0.602927159692402E-01
             -0.751779684603098E-01
             -0.349429210009100E-01
             -0.330478522774318E-01
             -0.348408396563616E-01
             -0.198556837714974E+00
              0.844504403946345E-03
             -0.117900923053428E+00
             -0.569130477749211E-01
              0.300265314741020E-01
              0.159814694667921E+00
              0.125380526806000E-01
              0.476006203337755E-02
              0.109388160499621E+00
             -0.114497938495309E+00
              0.428247287031255E-01
              0.368901975930258E-02
             -0.110382829175660E+00
             -0.699961636831042E-01
              0.281828088146038E-01
              0.812328903994314E-02
              0.403369261577864E-01
              0.224335115555526E-01
             -0.357755548734814E-01
             -0.694747341320829E-01
             -0.887133433429137E-01
              0.897281442993217E-01
             -0.131173777070617E+00
             -0.101252461223070E+00
              0.242605224184817E-01
             -0.153182979460390E+00
              0.499603967424248E-01
              0.103864766328989E+00
             -0.362691875400724E-01
              0.431258140928878E-01
             -0.779318545715891E-01
             -0.382510755121787E-01
              0.103601078293138E-01
              0.620693368077378E-01
             -0.588244985284224E-01
              0.313598998000829E-01
             -0.323582808031406E-01
              0.207638750624580E-01
              0.350156659593165E-01
              0.253333491459112E-01
             -0.325343829951188E-01
             -0.408932584295174E-02
             -0.187261730452093E-02
              0.561855442658846E-01
             -0.125590041974867E+00
             -0.106004535483062E-02
              0.867041183150053E-01
             -0.158251206285078E+00
              0.636785947577735E-01
             -0.201234067286175E+00
             -0.225157881989267E-01
             -0.226654009155734E-01
             -0.157570089681076E-01
             -0.231228062323077E-01
             -0.562471307083295E-01
             -0.113684807706749E-01
              0.420310327919923E-02
             -0.498040500944474E-01
              0.222381193685822E-01
              0.179836984034432E+00
             -0.932717922223993E-01
             -0.432105017109089E-01
              0.830177493309891E-01
              0.389068240348706E-01
              0.864181278864107E-01
              0.369132286221649E-01
              0.266842862441255E-01
             -0.268545307719868E-01
             -0.917899936272443E-01
             -0.977817796072590E-01
             -0.709388982346731E-01
              0.196520656050493E-01
             -0.778239892314774E-01
             -0.141134503154319E-01
              0.495238247222762E-02
              0.387832569234909E-01
             -0.430188900743712E-02
              0.116334439315101E+00
             -0.127611009475389E+00
             -0.692772290214322E-02
             -0.178907158336905E-01
              0.576550209531630E-01
             -0.725747560680430E-01
             -0.489405393544911E-01
              0.102067521591312E-01
              0.861792240010514E-01
              0.140469824585669E+00
              0.594404992019911E-01
              0.910950601583103E-01
             -0.382327831092343E-01
              0.124793386846836E+00
              0.109162869358442E+00
             -0.308347372704543E-02
              0.378050458294306E-01
              0.646138366815028E-01
             -0.239903377369280E-01
              0.411268202766659E-01
              0.125773028187232E+00
             -0.402931722407264E-01
             -0.136621047434722E-01
             -0.122504685964556E+00
              0.303730365075182E-01
             -0.377605923114125E-01
              0.414311325747942E-01
             -0.554569498597807E-02
             -0.682889236590632E-01
              0.972314341448277E-01
              0.667787926577095E-01
             -0.585031105970438E-01
              0.260501405075633E-01
             -0.115505906744507E+00
             -0.105191561085921E+00
              0.356361552805048E-01
             -0.120532356683847E+00
             -0.633523608847692E-01
             -0.176930738727095E-01
              0.170874358522310E+00
             -0.281773969595973E-01
             -0.332708169178990E-01
             -0.394279271213747E-01
              0.212306223991340E+00
              0.371602991554726E-01
             -0.720201132994326E-01
              0.137739244710807E+00
              0.118475264928171E+00
              0.644417827686962E-01
              0.157054688064596E+00
              0.157137543112756E+00
             -0.282366552283032E-02
             -0.480100197435432E-01
             -0.582540748669412E-01
              0.508389055055999E-01
              0.661932515115561E-01
             -0.184684636940645E-01
             -0.442752982505993E-01
             -0.105898433452871E+00
             -0.243689727363551E-01
             -0.866964409391250E-01
              0.559298118947833E-01
              0.395449526344911E-01
              0.107542825073821E+00
              0.335017355485877E-01
             -0.423925599148177E-01
             -0.978649520016118E-02
              0.705023741591459E-01
              0.188657976729212E-01
              0.129300333596500E+00
              0.106623682889965E+00
             -0.975898660040911E-02
             -0.158953576085912E-01
             -0.185254288338912E+00
              0.876466753826081E-01
             -0.247996509189063E-02
              0.117367592052204E+00
             -0.624204797532393E-01
             -0.128045861456244E+00
              0.275106089256007E-01
              0.133637171137622E+00
             -0.459546941357621E-01
              0.122415826105771E+00
             -0.134438929006823E+00
             -0.493092716853089E-01
             -0.164122946705743E+00
              0.190323724358366E-01
              0.318226268039551E-02
              0.185205229711963E-01
             -0.118370213639907E+00
              0.177969147438951E+00
              0.108433445287436E+00
              0.748211571241958E-02
             -0.106144610888418E+00
              0.420898183678837E-01
             -0.313068764839659E-01
             -0.332992582600248E-01
             -0.506121741699924E-01
              0.326794748782981E-01
             -0.413586952902406E-01
             -0.307472629168082E-01
              0.491755880650225E-01
              0.373329184061639E-01
             -0.169192464615067E+00
              0.327023478661473E-01
              0.119366069145710E+00
              0.780410779001645E-01
             -0.239145861633294E-01
             -0.650647961393516E-02
             -0.725597115141513E-01
              0.983060060799008E-01
              0.591946467774424E-02
             -0.103352767153546E-01
             -0.140484045359670E-01
              0.195699829953542E+00
             -0.148367350248336E-01
              0.327462612086254E-01
              0.140441024530569E+00
              0.173733607019507E+00
              0.105722938576390E+00
              0.736231407972825E-01
             -0.115508551465044E+00
             -0.914186098075536E-01
              0.634299244545832E-01
              0.184341057869103E-01
              0.574323837123734E-01
              0.116984267542337E-01
              0.131959948823374E+00
             -0.149364021656356E+00
             -0.887663423008648E-01
             -0.253479706798509E-01
             -0.161645235312134E+00
              0.279706855106859E-01
              0.833817526511652E-01
             -0.145284782595440E-01
             -0.389745038278828E-01
              0.376339156939349E-01
              0.248690606802392E+00
              0.660807790496285E-01
              0.278396310692857E-01
             -0.827498121774747E-01
             -0.104019188446093E+00
             -0.368836451455890E-01
              0.524152418717194E-01
             -0.874016783071763E-02
              0.639053275522749E-01
              0.742311383112118E-01
             -0.110459583180484E+00
              0.489486787304965E-01
              0.486442369859180E-01
              0.975239954692306E-01
             -0.245533007776201E-01
              0.609554946011248E-02
             -0.138963075648618E-01
             -0.814128581830061E-01
             -0.147058949745076E+00
              0.128333474734158E+00
             -0.125209607322195E-01
             -0.877320536037519E-01
              0.180115884871795E-01
             -0.664058300630264E-01
              0.158552639725266E+00
             -0.465058880500535E-01
             -0.749328817107962E-01
              0.857813204890826E-01
             -0.212605132925152E-01
              0.829804014081849E-01
              0.159863750513235E-01
              0.163012542256846E+00
              0.872920044728247E-01
              0.334607264596955E-01
             -0.725859251970656E-01
              0.486033443903110E-01
             -0.964240650283151E-01
              0.314783676010344E-04
              0.132171770419069E+00
             -0.426964166310291E-01
             -0.765130513581626E-01
             -0.412280457443664E-01
              0.100734803399789E+00
              0.109823295867162E-01
             -0.149959432588599E+00
              0.712143686641029E-01
              0.736144434552921E-02
              0.252808281729671E-01
             -0.997975530476649E-01
              0.311237115914119E-01
              0.634182304068077E-01
              0.818455362100921E-01
              0.121564048779144E+00
              0.779484260474080E-01
              0.872748280610983E-02
             -0.111561950929743E+00
             -0.782068289016604E-01
             -0.110962305234404E+00
             -0.276802771019308E-01
              0.779883019475938E-01
             -0.749327429862519E-02
              0.106546917965507E+00
             -0.551921188623871E-01
              0.279982315964424E-01
             -0.622536756043608E-01
             -0.475215466189527E-01
              0.108566670486286E+00
              0.128715777572692E-01
              0.111463414298384E+00
              0.805994188341430E-02
              0.355248793841502E-01
             -0.256970329587661E-01
              0.101651175278186E+00
             -0.347411439187185E-01
              0.578717520847817E-02
             -0.149241362644043E+00
             -0.146996229345337E-01
              0.128815524763302E+00
              0.122380070788044E+00
              0.389205476758396E-01
             -0.125630760331806E-01
              0.158150051956759E-01
             -0.523570684959301E-01
             -0.417684557132077E-01
              0.163927539870094E+00
              0.268501607614421E-01
             -0.460921371549049E-01
             -0.190263776085629E+00
             -0.685648347840677E-01
             -0.737539119323741E-01
             -0.916222846883685E-01
             -0.118583911354065E+00
             -0.134345888328832E+00
             -0.824806736533901E-01
             -0.542345705572485E-01
             -0.798507490780196E-01
              0.825489865035271E-01
             -0.351514156560849E-01
             -0.147701183923758E+00
              0.833916033860652E-01
             -0.730818818762178E-01
             -0.137222571392849E+00
              0.193780019147301E+00
             -0.464326830996813E-01
              0.279891946144588E-01
              0.728436234389920E-01
              0.418748911211017E-01
              0.516229686534700E-01
              0.633470212709736E-03
              0.446931440321088E-02
             -0.309595067475903E-01
             -0.136955533507846E+00
              0.182750166800268E-01
             -0.220006324298445E+00
              0.144764422742025E+00
             -0.717090318295275E-01
             -0.350557839566601E-01
             -0.391423344895274E-01
              0.548410651126761E-01
             -0.374138487722436E-01
              0.484543069185332E-01
             -0.103979132930465E+00
              0.725981952849151E-01
              0.862599958172819E-01
              0.110649045574979E-01
              0.229905073398262E-01
              0.384250923855895E-01
              0.123110485429662E-01
              0.619091397546525E-01
             -0.600410179707633E-03
             -0.142863426624467E+00
              0.155182161558912E-01
             -0.787175356633182E-01
              0.547705012218469E-02
              0.113082833089767E+00
             -0.156022241348251E+00
              0.119678516277993E-01
              0.104454445909432E-01
              0.234741735613521E-01
              0.501282646853649E-01
             -0.293487849802564E-01
              0.161080537043997E+00
              0.514309915353209E-01
             -0.173800735050363E-01
             -0.114414291792821E-01
              0.130854070512610E-01
              0.149508399923202E+00
             -0.856862529787917E-01
             -0.189649875484316E+00
              0.619132671003056E-01
             -0.995488859311350E-02
             -0.384665896536435E-01
              0.344951226128393E-01
              0.129715553191477E+00
              0.666969083523022E-01
             -0.359582648358351E-01
             -0.107999212938091E+00
             -0.324332842728267E-01
              0.471746145244235E-01
             -0.349925369224856E-01
             -0.151187262057208E+00
             -0.262951818170323E-01
             -0.183916068667812E+00
             -0.929466628060412E-01
              0.172990928549279E+00
             -0.100014077435290E+00
             -0.129625524125751E+00
             -0.109091457642912E+00
             -0.825616486021847E-01
              0.704887443281024E-01
              0.156792678621027E+00
             -0.308399716662268E-01
              0.508932342680201E-01
             -0.363019037741736E-01
             -0.120275555224985E+00
              0.115473302258855E+00
             -0.900318641153454E-01
              0.461236201986921E-01
              0.360827353372719E-01
             -0.318122381293025E-01
              0.570865557959745E-01
              0.621256641736530E-01
              0.237451607774652E+00
             -0.204744394247581E-01
             -0.118495005236055E+00
             -0.129890056672241E+00
             -0.310730502128783E-01
             -0.925215221879836E-01
              0.176833901033451E+00
             -0.101519383293986E+00
              0.108439829263234E-01
              0.174115258370239E-02
             -0.321190253330247E-01
             -0.158262372716774E+00
             -0.158524520933806E-01
              0.192597105888698E+00
              0.453380799041699E-01
              0.111118273963876E-01
             -0.109911155958919E+00
             -0.929382321669590E-01
             -0.361164505191530E-01
              0.868596417446219E-01
             -0.527067594074336E-01
              0.183997825759858E+00
             -0.965768027848506E-01
              0.264346342486392E-01
             -0.241305370233070E-01
             -0.114758645555532E+00
              0.127003460960308E-01
             -0.120047063041978E+00
             -0.139737421482647E+00
              0.131603921869295E-01
             -0.163190160975071E-02
              0.828664881195233E-01
              0.501898040614057E-01
             -0.742538253815193E-01
              0.360870004039456E-01
             -0.167573676789885E+00
             -0.863108018503475E-01
              0.182242057993280E+00
             -0.157107056232466E-01
             -0.127840027579916E-01
             -0.332455075081569E-01
              0.105926880312524E-01
             -0.281171063938144E-01
              0.183929558179302E+00
              0.821384727752811E-01
             -0.111042861151485E-01
             -0.127189784489223E-03
             -0.701544796917202E-01
             -0.643156907529085E-02
             -0.111275626405810E+00
              0.106733629617438E+00
              0.157102742618173E-01
              0.177538628048832E-01
              0.361456116647582E-01
             -0.374245765200902E-01
             -0.477804963393037E-01
              0.223462360726158E-01
             -0.206546787889222E+00
             -0.139777615033701E-01
             -0.218701140219902E-01
             -0.999247337133270E-02
              0.818953746545328E-01
              0.120724334805259E+00
              0.382737275027142E-01
             -0.169927359996468E+00
              0.121804059569173E+00
             -0.519905451638538E-01
             -0.619124606391829E-01
             -0.154028578945702E+00
             -0.535014051436870E-01
              0.119183377091728E+00
              0.716099902795245E-01
              0.452070107861239E-01
              0.611863527069184E-01
             -0.103428198706608E+00
             -0.853593336835818E-01
              0.132977429653657E+00
              0.798108606915716E-01
              0.818504663777690E-01
              0.325790635436050E-01
              0.261241037029261E-01
              0.979676231503421E-01
              0.178271689460917E+00
             -0.342324039008672E-01
              0.680638681736925E-01
             -0.601194716128113E-01
             -0.782505150935068E-01
             -0.627456610700941E-01
             -0.609826806480043E-01
             -0.265516996338621E-01
             -0.823077821104751E-01
             -0.341344312300778E-01
             -0.226584433800951E+00
              0.698442711654734E-01
              0.640898884344366E-01
             -0.416206041639462E-02
             -0.525097090078757E-01
             -0.204828629251482E-01
             -0.107524099362599E+00
              0.105053171971846E-01
              0.145009386781137E+00
             -0.391450389171186E-01
             -0.408735836249433E-01
              0.236734079241782E-01
             -0.104550681190600E+00
              0.163739961370104E+00
              0.293842483680071E-01
              0.327622291626528E-02
              0.957127754583753E-01
             -0.202187146396492E-01
              0.113168123754418E+00
              0.396957356334322E-01
             -0.574628472922389E-02
              0.331501734913771E-01
             -0.293886267120703E-01
              0.133854986327600E+00
              0.129782633717450E-01
              0.456136403208380E-01
             -0.185209159211872E-01
              0.145397917958391E-01
             -0.176242786356877E+00
             -0.541214769612967E-01
             -0.974700265572659E-01
              0.927521934962045E-01
             -0.756930211177975E-01
             -0.968890527192134E-01
              0.986060123868195E-01
             -0.283306612457450E-01
              0.838971344289753E-01
             -0.150579808574668E+00
              0.330626634420522E-01
             -0.292782283943210E-02
              0.181102115490289E-01
             -0.332658400369950E-01
             -0.638997747168613E-02
              0.940084494675665E-01
              0.461027943080083E-02
             -0.977989299825304E-01
             -0.561476669819226E-01
              0.194613783705097E-01
             -0.225918657544146E+00
             -0.160842172007406E+00
              0.506816070072663E-02
              0.310935786211128E-01
             -0.114327902052470E+00
              0.841867217979875E-02
              0.197932637868274E+00
              0.379959304330331E-01
             -0.111053248851926E+00
              0.506012243996623E-02
             -0.142907996609695E-01
              0.345668440539541E-01
             -0.719210097166991E-01
              0.490653482653527E-01
              0.379821640366215E-01
             -0.113639819336502E-01
              0.207016803343006E+00
             -0.128367132429460E-01
             -0.469955777688376E-01
              0.552201174202102E-01
              0.904533024121233E-01
             -0.586780077073887E-01
              0.546234585857258E-02
              0.193324359076746E+00
             -0.333252826719010E-02
              0.839967597190536E-01
              0.333531799976017E-01
             -0.749126549924412E-02
             -0.197635226400618E-01
              0.712154477479107E-01
             -0.101918447107226E+00
             -0.668914039346882E-02
             -0.426084229136154E-01
             -0.759445893168720E-01
              0.158659505604040E-01
              0.515076189446766E-01
             -0.155643143582921E-01
             -0.253855197515018E-02
             -0.774635302980964E-01
              0.182659555637093E-01
             -0.998608911670942E-02
             -0.335966812265290E-01
             -0.357089915253667E-01
              0.294183222138158E-01
              0.189277567713597E-02
             -0.754260254291566E-01
             -0.197510632968757E+00
              0.409755397709574E-02
              0.229175088708551E-01
             -0.820399831989278E-01
             -0.589399887855251E-01
              0.152792454416278E+00
              0.279940460323328E-01
              0.773266968993862E-01
              0.183299406674630E-01
              0.631336618195721E-01
             -0.190913513466251E-02
             -0.707981290742843E-01
             -0.288589586631011E-01
              0.102550987409626E-01
              0.515561817200663E-01
              0.124601127430803E+00
              0.935879910300941E-01
             -0.150874740888707E-02
              0.167349596391402E-01
              0.119152438635688E+00
              0.500895550762858E-01
             -0.134423884993503E+00
             -0.535442424398050E-01
              0.255557826974432E-01
              0.199456686401717E-01
              0.411901719866825E-01
             -0.959883426486533E-01
             -0.405683564812143E-02
              0.749850822502406E-01
              0.873526827301898E-01
             -0.709507878019511E-01
              0.346906227285226E-02
              0.213978535553017E-02
             -0.400037158548354E-01
             -0.338256617004496E-01
             -0.107027834273407E-01
             -0.353707759554090E-01
              0.253784493405512E-01
              0.783223784080124E-01
             -0.525985963124892E-01
              0.163322663432900E+00
              0.456773264374872E-01
              0.442462605275424E-01
              0.844290000997870E-01
              0.397370253732089E-01
              0.735364684902826E-01
              0.104052316363963E+00
             -0.900865183141991E-01
              0.123207909323453E+00
             -0.215804650403533E+00
              0.558030846640814E-01
             -0.188422814287709E+00
              0.143207624180736E+00
              0.145358057348033E+00
             -0.113736186420342E-01
             -0.840075441834920E-01
             -0.914173664300519E-01
             -0.998375565590809E-01
             -0.131293644938816E+00
              0.958660786509662E-01
              0.787069388345276E-01
              0.406331660993938E-01
              0.485784823107978E-01
              0.821329922104129E-01
             -0.829273670344881E-01
             -0.213314748846412E-01
              0.108401303988136E+00
             -0.273611385585881E-01
              0.971877037564576E-01
              0.150408026873291E+00
             -0.978265498457544E-02
             -0.149202272799778E+00
              0.208473360177330E-01
              0.640619723204303E-02
             -0.123151494738084E-01
              0.225838207832174E-02
             -0.125446186381116E+00
             -0.771869553416143E-02
              0.394905858137882E-01
              0.347213125385849E-01
              0.933585640528142E-01
             -0.717376922185911E-01
              0.952996431124561E-01
             -0.695365778329360E-01
              0.525853229070837E-01
              0.864833617340187E-01
 
 BEEF-vdW xc energy contributions
           1 :   -1.15251903422083     
           2 :   0.765458776236324     
           3 :  -0.332245704397305     
           4 :   5.606605839275280E-002
           5 :   6.365542752346887E-002
           6 :  -8.407640989133158E-002
           7 :   5.965686885376176E-002
           8 :  -2.354217481495180E-002
           9 :  -3.023437045751365E-003
          10 :   1.012336810370806E-002
          11 :  -1.077620148604019E-003
          12 :  -1.132403747865274E-002
          13 :   1.688252978554550E-002
          14 :  -1.493234738406635E-002
          15 :   8.780307718077918E-003
          16 :  -8.855026197225335E-004
          17 :  -5.763020535871188E-003
          18 :   8.568586546773282E-003
          19 :  -7.926934426297993E-003
          20 :   5.965522115483957E-003
          21 :  -5.124997928775077E-003
          22 :   6.234520509121211E-003
          23 :  -8.486797923717759E-003
          24 :   1.081996951278041E-002
          25 :  -1.168065802832707E-002
          26 :   1.076892381830552E-002
          27 :  -9.525712979077117E-003
          28 :   8.942610229076386E-003
          29 :  -8.819010512421510E-003
          30 :   8.733234522900091E-003
          31 :  -0.190224058614355     
          32 :  -8.624123624658786E-002

     Writing output data file ./pwscf.save/
 
     init_run     :     54.08s CPU     55.80s WALL (       1 calls)
     electrons    :    392.48s CPU    403.62s WALL (       1 calls)
     forces       :      1.25s CPU      1.36s WALL (       1 calls)

     Called by init_run:
     wfcinit      :      0.76s CPU      0.77s WALL (       1 calls)
     potinit      :     51.94s CPU     53.49s WALL (       1 calls)
     hinit0       :      0.69s CPU      0.74s WALL (       1 calls)

     Called by electrons:
     c_bands      :     62.69s CPU     62.73s WALL (       9 calls)
     sum_band     :      7.20s CPU      7.25s WALL (       9 calls)
     v_of_rho     :    214.34s CPU    225.92s WALL (      10 calls)
     newd         :      1.87s CPU      1.93s WALL (      10 calls)
     PAW_pot      :      0.01s CPU      0.02s WALL (      10 calls)
     mix_rho      :    156.96s CPU    157.83s WALL (       9 calls)
     vdW_kernel   :     33.52s CPU     33.52s WALL (       1 calls)

     Called by c_bands:
     init_us_2    :      0.13s CPU      0.13s WALL (      19 calls)
     rcgdiagg     :     56.84s CPU     56.87s WALL (       9 calls)
     wfcrot       :      6.50s CPU      6.52s WALL (       9 calls)

     Called by *cgdiagg:
     h_psi        :     60.30s CPU     60.32s WALL (     237 calls)
     s_psi        :      0.51s CPU      0.51s WALL (     465 calls)

     Called by h_psi:
     h_psi:calbec :      0.32s CPU      0.32s WALL (     237 calls)
     vloc_psi     :     59.50s CPU     59.52s WALL (     237 calls)
     add_vuspsi   :      0.33s CPU      0.33s WALL (     237 calls)
     hs_1psi      :     54.37s CPU     54.39s WALL (     228 calls)
     s_1psi       :      0.58s CPU      0.59s WALL (     228 calls)

     General routines
     calbec       :      0.59s CPU      0.59s WALL (     478 calls)
     fft          :    249.10s CPU    249.13s WALL (    2462 calls)
     ffts         :     74.53s CPU     74.53s WALL (     747 calls)
     fftw         :     53.86s CPU     53.87s WALL (     537 calls)
 
     Parallel routines
 
     PWSCF        :  17m26.09s CPU  18m24.75s WALL

 
   This run was terminated on:   9:41:55  16May2022            

=------------------------------------------------------------------------------=
   JOB DONE.
=------------------------------------------------------------------------------=
