
     Program PWSCF v.6.7MaX starts on 20Dec2022 at 16:48:30 

     This program is part of the open-source Quantum ESPRESSO suite
     for quantum simulation of materials; please cite
         "P. Giannozzi et al., J. Phys.:Condens. Matter 21 395502 (2009);
         "P. Giannozzi et al., J. Phys.:Condens. Matter 29 465901 (2017);
          URL http://www.quantum-espresso.org", 
     in publications or presentations arising from this work. More details at
     http://www.quantum-espresso.org/quote

     Parallel version (MPI), running on     1 processors

     MPI processes distributed on     1 nodes
     Reading input from h2co2h2-gas-ensemble.in
Warning: card &CELL ignored
Warning: card / ignored

     Current dimensions of program PWSCF are:
     Max number of different atomic species (ntypx) = 10
     Max number of k-points (npk) =  40000
     Max angular momentum in pseudopotentials (lmaxx) =  3
     file O.pbe-nl-kjpaw_psl.1.0.0.UPF: wavefunction(s)  2S 2P renormalized
     file C.pbe-n-kjpaw_psl.1.0.0.UPF: wavefunction(s)  2S 2P renormalized
     file H.pbe-kjpaw_psl.1.0.0.UPF: wavefunction(s)  1S renormalized

     **************************************************************************
     Initializing libbeef V0.1.2 with the BEEF-vdW functional.
     Citation: Wellendorff et al., PRB 85, 235149 (2012).
     **************************************************************************


     IMPORTANT: XC functional enforced from input :
     Exchange-correlation= BEEF-VDW
                           (   1   4  43  14   2   0   0)
     Any further DFT definition will be discarded
     Please, verify this is what you really want


     gamma-point specific algorithms are used

     Subspace diagonalization in iterative solution of the eigenvalue problem:
     a serial algorithm will be used

 
     G-vector sticks info
     --------------------
     sticks:   dense  smooth     PW     G-vecs:    dense   smooth      PW
     Sum       34817   34817   8709              4691481  4691481  586429
 


     bravais-lattice index     =            0
     lattice parameter (alat)  =      42.8398  a.u.
     unit-cell volume          =   74728.9369 (a.u.)^3
     number of atoms/cell      =            7
     number of atomic types    =            3
     number of electrons       =        20.00
     number of Kohn-Sham states=           14
     kinetic-energy cutoff     =      60.0000  Ry
     charge density cutoff     =     240.0000  Ry
     scf convergence threshold =      1.0E-06
     mixing beta               =       0.7000
     number of iterations used =            8  local-TF  mixing
     Exchange-correlation= BEEF-VDW
                           (   1   4  43  14   2   0   0)

     celldm(1)=  42.839793  celldm(2)=   0.000000  celldm(3)=   0.000000
     celldm(4)=   0.000000  celldm(5)=   0.000000  celldm(6)=   0.000000

     crystal axes: (cart. coord. in units of alat)
               a(1) = (   1.000000   0.000000   0.000000 )  
               a(2) = (   0.000000   0.994069   0.000000 )  
               a(3) = (   0.000000   0.000000   0.956159 )  

     reciprocal axes: (cart. coord. in units 2 pi/alat)
               b(1) = (  1.000000  0.000000  0.000000 )  
               b(2) = (  0.000000  1.005966  0.000000 )  
               b(3) = (  0.000000  0.000000  1.045851 )  


     PseudoPot. # 1 for O  read from file:
     /users/bkreitz1/quantum-espresso/potentials/O.pbe-nl-kjpaw_psl.1.0.0.UPF
     MD5 check sum: eef08af8b58d9ec80f8fdb78829eb7cf
     Pseudo is Projector augmented-wave + core cor, Zval =  6.0
     Generated using 'atomic' code by A. Dal Corso  v.6.7MaX
     Shape of augmentation charge: PSQ
     Using radial grid of 1095 points,  4 beta functions with: 
                l(1) =   0
                l(2) =   0
                l(3) =   1
                l(4) =   1
     Q(r) pseudized with 0 coefficients 


     PseudoPot. # 2 for C  read from file:
     /users/bkreitz1/quantum-espresso/potentials/C.pbe-n-kjpaw_psl.1.0.0.UPF
     MD5 check sum: a169b0ebad56f5ec0d79c4633f80bf22
     Pseudo is Projector augmented-wave + core cor, Zval =  4.0
     Generated using 'atomic' code by A. Dal Corso  v.6.7MaX
     Shape of augmentation charge: PSQ
     Using radial grid of 1073 points,  4 beta functions with: 
                l(1) =   0
                l(2) =   0
                l(3) =   1
                l(4) =   1
     Q(r) pseudized with 0 coefficients 


     PseudoPot. # 3 for H  read from file:
     /users/bkreitz1/quantum-espresso/potentials/H.pbe-kjpaw_psl.1.0.0.UPF
     MD5 check sum: ae98473e6dc62675f0d0baffdab24f65
     Pseudo is Projector augmented-wave, Zval =  1.0
     Generated using 'atomic' code by A. Dal Corso  v.6.7MaX
     Shape of augmentation charge: PSQ
     Using radial grid of  929 points,  2 beta functions with: 
                l(1) =   0
                l(2) =   0
     Q(r) pseudized with 0 coefficients 


     atomic species   valence    mass     pseudopotential
        O              6.00    15.99900     O ( 1.00)
        C              4.00    12.01100     C ( 1.00)
        H              1.00     1.00800     H ( 1.00)

     No symmetry found



   Cartesian axes

     site n.     atom                  positions (alat units)
         1           O   tau(   1) = (   0.4723340   0.4411054   0.4486973  )
         2           C   tau(   2) = (   0.5220679   0.4739640   0.4681544  )
         3           O   tau(   3) = (   0.5175504   0.5355236   0.4577132  )
         4           H   tau(   4) = (   0.5306962   0.4652059   0.5149785  )
         5           H   tau(   5) = (   0.5588161   0.4589785   0.4412108  )
         6           H   tau(   6) = (   0.4913481   0.5528757   0.4864920  )
         7           H   tau(   7) = (   0.4411893   0.4440366   0.4780695  )

     number of k points=     1  Gaussian smearing, width (Ry)=  0.0050
                       cart. coord. in units 2pi/alat
        k(    1) = (   0.0000000   0.0000000   0.0000000), wk =   2.0000000

     Dense  grid:  2345741 G-vectors     FFT dimensions: ( 216, 216, 216)

     Estimated max dynamical RAM per process >       3.84 GB

     Initial potential from superposition of free atoms

     starting charge   19.99992, renormalised to   20.00000

     negative rho (up, down):  2.164E-02 0.000E+00


     %%%%%%%%%%%%%%%%%%%%%%%%%%%%%%%%%%%%%%%%%%%%%%%%%%%%%%%%%%%%%%%%%%%%%%%%
     %                                                                      %
     % You are using vdW-DF, which was implemented by the Thonhauser group. %
     % Please cite the following two papers that made this development      %
     % possible and the two reviews that describe the various versions:     %
     %                                                                      %
     %   T. Thonhauser et al., PRL 115, 136402 (2015).                      %
     %   T. Thonhauser et al., PRB 76, 125112 (2007).                       %
     %   K. Berland et al., Rep. Prog. Phys. 78, 066501 (2015).             %
     %   D.C. Langreth et al., J. Phys.: Condens. Matter 21, 084203 (2009). %
     %                                                                      %
     %                                                                      %
     % If you are calculating the stress with vdW-DF, please also cite:     %
     %                                                                      %
     %   R. Sabatini et al., J. Phys.: Condens. Matter 24, 424209 (2012).   %
     %                                                                      %
     %%%%%%%%%%%%%%%%%%%%%%%%%%%%%%%%%%%%%%%%%%%%%%%%%%%%%%%%%%%%%%%%%%%%%%%%


     Starting wfcs are   16 randomized atomic wfcs
     Checking if some PAW data can be deallocated... 

     total cpu time spent up to now is       77.4 secs

     Self-consistent Calculation

     iteration #  1     ecut=    60.00 Ry     beta= 0.70
     Davidson diagonalization with overlap
     ethr =  1.00E-02,  avg # of iterations =  5.0

     negative rho (up, down):  1.722E-02 0.000E+00

     total cpu time spent up to now is      118.7 secs

     total energy              =    -108.81223818 Ry
     estimated scf accuracy    <       0.88185287 Ry

     iteration #  2     ecut=    60.00 Ry     beta= 0.70
     Davidson diagonalization with overlap
     ethr =  4.41E-03,  avg # of iterations =  2.0

     negative rho (up, down):  1.271E-02 0.000E+00

     total cpu time spent up to now is      157.9 secs

     total energy              =    -108.85497631 Ry
     estimated scf accuracy    <       0.14760211 Ry

     iteration #  3     ecut=    60.00 Ry     beta= 0.70
     Davidson diagonalization with overlap
     ethr =  7.38E-04,  avg # of iterations = 14.0

     negative rho (up, down):  1.138E-02 0.000E+00

     total cpu time spent up to now is      201.3 secs

     total energy              =    -108.84838320 Ry
     estimated scf accuracy    <       0.04100423 Ry

     iteration #  4     ecut=    60.00 Ry     beta= 0.70
     Davidson diagonalization with overlap
     ethr =  2.05E-04,  avg # of iterations =  5.0

     negative rho (up, down):  2.723E-02 0.000E+00

     total cpu time spent up to now is      242.5 secs

     total energy              =    -108.84529294 Ry
     estimated scf accuracy    <       0.01397542 Ry

     iteration #  5     ecut=    60.00 Ry     beta= 0.70
     Davidson diagonalization with overlap
     ethr =  6.99E-05,  avg # of iterations =  7.0

     negative rho (up, down):  8.572E-02 0.000E+00

     total cpu time spent up to now is      286.2 secs

     total energy              =    -108.84592753 Ry
     estimated scf accuracy    <       0.00545124 Ry

     iteration #  6     ecut=    60.00 Ry     beta= 0.70
     Davidson diagonalization with overlap
     ethr =  2.73E-05,  avg # of iterations =  5.0

     negative rho (up, down):  1.123E-01 0.000E+00

     total cpu time spent up to now is      328.4 secs

     total energy              =    -108.84640863 Ry
     estimated scf accuracy    <       0.00223552 Ry

     iteration #  7     ecut=    60.00 Ry     beta= 0.70
     Davidson diagonalization with overlap
     ethr =  1.12E-05,  avg # of iterations =  5.0

     negative rho (up, down):  9.108E-02 0.000E+00

     total cpu time spent up to now is      370.2 secs

     total energy              =    -108.84581023 Ry
     estimated scf accuracy    <       0.00094590 Ry

     iteration #  8     ecut=    60.00 Ry     beta= 0.70
     Davidson diagonalization with overlap
     c_bands:  1 eigenvalues not converged
     ethr =  4.73E-06,  avg # of iterations = 20.0

     negative rho (up, down):  8.650E-02 0.000E+00

     total cpu time spent up to now is      416.5 secs

     total energy              =    -108.84550938 Ry
     estimated scf accuracy    <       0.00048730 Ry

     iteration #  9     ecut=    60.00 Ry     beta= 0.70
     Davidson diagonalization with overlap
     c_bands:  1 eigenvalues not converged
     ethr =  2.44E-06,  avg # of iterations = 20.0

     negative rho (up, down):  5.567E-02 0.000E+00

     total cpu time spent up to now is      462.7 secs

     total energy              =    -108.84488879 Ry
     estimated scf accuracy    <       0.00022677 Ry

     iteration # 10     ecut=    60.00 Ry     beta= 0.70
     Davidson diagonalization with overlap
     ethr =  1.13E-06,  avg # of iterations = 17.0

     negative rho (up, down):  5.007E-02 0.000E+00

     total cpu time spent up to now is      509.4 secs

     total energy              =    -108.84487504 Ry
     estimated scf accuracy    <       0.00014485 Ry

     iteration # 11     ecut=    60.00 Ry     beta= 0.70
     Davidson diagonalization with overlap
     ethr =  7.24E-07,  avg # of iterations =  6.0

     negative rho (up, down):  3.724E-02 0.000E+00

     total cpu time spent up to now is      550.7 secs

     total energy              =    -108.84486302 Ry
     estimated scf accuracy    <       0.00004934 Ry

     iteration # 12     ecut=    60.00 Ry     beta= 0.70
     Davidson diagonalization with overlap
     ethr =  2.47E-07,  avg # of iterations =  9.0

     negative rho (up, down):  3.585E-02 0.000E+00

     total cpu time spent up to now is      594.6 secs

     total energy              =    -108.84487814 Ry
     estimated scf accuracy    <       0.00003158 Ry

     iteration # 13     ecut=    60.00 Ry     beta= 0.70
     Davidson diagonalization with overlap
     ethr =  1.58E-07,  avg # of iterations =  2.0

     negative rho (up, down):  3.049E-02 0.000E+00

     total cpu time spent up to now is      633.4 secs

     total energy              =    -108.84487662 Ry
     estimated scf accuracy    <       0.00001132 Ry

     iteration # 14     ecut=    60.00 Ry     beta= 0.70
     Davidson diagonalization with overlap
     ethr =  5.66E-08,  avg # of iterations =  6.0

     negative rho (up, down):  2.909E-02 0.000E+00

     total cpu time spent up to now is      674.1 secs

     total energy              =    -108.84488201 Ry
     estimated scf accuracy    <       0.00000506 Ry

     iteration # 15     ecut=    60.00 Ry     beta= 0.70
     Davidson diagonalization with overlap
     ethr =  2.53E-08,  avg # of iterations =  2.0

     negative rho (up, down):  2.822E-02 0.000E+00

     total cpu time spent up to now is      713.4 secs

     total energy              =    -108.84488663 Ry
     estimated scf accuracy    <       0.00000124 Ry

     iteration # 16     ecut=    60.00 Ry     beta= 0.70
     Davidson diagonalization with overlap
     ethr =  6.20E-09,  avg # of iterations =  9.0

     negative rho (up, down):  2.780E-02 0.000E+00

     total cpu time spent up to now is      744.7 secs

     End of self-consistent calculation

          k = 0.0000 0.0000 0.0000 (293215 PWs)   bands (ev):

   -26.9439 -25.4538 -17.2748 -13.4456 -13.2104 -11.5283  -9.3185  -8.8757
    -7.3781  -7.1759  -1.5518  -0.5912  -0.4601  -0.2814

     the Fermi energy is    -3.5121 ev

!    total energy              =    -108.84488797 Ry

     total all-electron energy =      -384.302758 Ry
     estimated scf accuracy    <       0.00000044 Ry
     smearing contrib. (-TS)   =      -0.00000000 Ry
     internal energy E=F+TS    =    -108.84488797 Ry

     The total energy is F=E-TS. E is the sum of the following terms:
     one-electron contribution =    -264.93219042 Ry
     hartree contribution      =     136.39228510 Ry
     xc contribution           =     -23.36547818 Ry
     ewald contribution        =      69.87361498 Ry
     one-center paw contrib.   =     -26.81311945 Ry

     convergence has been achieved in  16 iterations

     negative rho (up, down):  2.780E-02 0.000E+00

     Forces acting on atoms (cartesian axes, Ry/au):

     atom    1 type  1   force =    -0.00947192    0.00124901    0.00908620
     atom    2 type  2   force =     0.00010666   -0.00058813    0.00146514
     atom    3 type  1   force =    -0.00034541    0.00057646   -0.00069476
     atom    4 type  3   force =    -0.00013896    0.00039312   -0.00073431
     atom    5 type  3   force =     0.00020714    0.00022822   -0.00012331
     atom    6 type  3   force =     0.00048684   -0.00035689    0.00022642
     atom    7 type  3   force =     0.00915566   -0.00150180   -0.00922537

     Total force =     0.018700     Total SCF correction =     0.000195

     negative rho (up, down):  2.780E-02 0.000E+00

     negative rho (up, down):  2.780E-02 0.000E+00

     negative rho (up, down):  2.780E-02 0.000E+00

     negative rho (up, down):  2.780E-02 0.000E+00

     negative rho (up, down):  2.780E-02 0.000E+00

     negative rho (up, down):  2.780E-02 0.000E+00

     negative rho (up, down):  2.780E-02 0.000E+00

     negative rho (up, down):  2.780E-02 0.000E+00

     negative rho (up, down):  2.780E-02 0.000E+00

     negative rho (up, down):  2.780E-02 0.000E+00

     negative rho (up, down):  2.780E-02 0.000E+00

     negative rho (up, down):  2.780E-02 0.000E+00

     negative rho (up, down):  2.780E-02 0.000E+00

     negative rho (up, down):  2.780E-02 0.000E+00

     negative rho (up, down):  2.780E-02 0.000E+00

     negative rho (up, down):  2.780E-02 0.000E+00

     negative rho (up, down):  2.780E-02 0.000E+00

     negative rho (up, down):  2.780E-02 0.000E+00

     negative rho (up, down):  2.780E-02 0.000E+00

     negative rho (up, down):  2.780E-02 0.000E+00

     negative rho (up, down):  2.780E-02 0.000E+00

     negative rho (up, down):  2.780E-02 0.000E+00

     negative rho (up, down):  2.780E-02 0.000E+00

     negative rho (up, down):  2.780E-02 0.000E+00

     negative rho (up, down):  2.780E-02 0.000E+00

     negative rho (up, down):  2.780E-02 0.000E+00

     negative rho (up, down):  2.780E-02 0.000E+00

     negative rho (up, down):  2.780E-02 0.000E+00

     negative rho (up, down):  2.780E-02 0.000E+00

     negative rho (up, down):  2.780E-02 0.000E+00

     negative rho (up, down):  2.780E-02 0.000E+00

     negative rho (up, down):  2.780E-02 0.000E+00

     negative rho (up, down):  2.780E-02 0.000E+00

     negative rho (up, down):  2.780E-02 0.000E+00
 BEEFens 2000 ensemble energies
             -0.172507485661319E+01
             -0.651431755634535E-01
             -0.368094388781165E+00
              0.119223545371701E+01
             -0.561902583701591E+00
             -0.440798253233114E+00
             -0.126535654304013E+01
             -0.262037467342525E+01
             -0.986714790490098E+00
             -0.105604499376514E+01
             -0.962608866332189E+00
              0.132061151852693E+00
              0.860162139379792E-01
             -0.938667185766180E-01
              0.112722368932062E+00
              0.126574723785048E+01
             -0.566048257781106E+00
             -0.326657734772871E+00
              0.609146023490496E+00
             -0.299581097926827E+01
              0.152408830821274E+01
             -0.526274298792771E+00
             -0.173447182755701E+00
             -0.253459653291941E+00
              0.379663557708358E-01
             -0.180774023633275E+00
              0.239282006759673E+01
             -0.562393849400980E+00
             -0.248062595205010E+00
             -0.150565859705265E+01
              0.191673124700592E+01
             -0.174428166238698E+00
             -0.113196970855426E+01
              0.527586773634303E+00
             -0.778414314889515E-01
              0.728401741032014E+00
              0.297077118877453E-01
              0.239001866985902E-01
              0.943600726870727E+00
             -0.274679986810789E+01
              0.148104216198278E+01
              0.315077362373679E+00
             -0.286815600672996E+00
             -0.839813669471006E+00
              0.316461789677509E+00
             -0.453048546032912E+00
              0.135286582524266E+01
              0.962424947200146E+00
             -0.551643224755423E+00
             -0.858457356388868E+00
             -0.805262949527489E+00
             -0.986688835475059E+00
              0.534162730569927E+00
             -0.143788350787911E+01
              0.428303956875055E+00
              0.164364380478366E+01
              0.199262182327061E+01
              0.866331426805178E+00
              0.482746291938574E+00
              0.845196336010341E+00
              0.244113587473268E+01
              0.500532730741497E+00
             -0.150155179119004E+01
             -0.278047097235184E+00
             -0.781857884456617E+00
              0.170224599797305E+01
             -0.200792286223901E+01
             -0.158585014734402E+01
             -0.857203653542037E+00
             -0.445478170977692E+00
             -0.111244467856405E+01
              0.741334097860108E+00
              0.353104630975913E+00
              0.421945977849613E+00
             -0.101650513269424E+01
             -0.963604412202084E+00
             -0.156556319146483E+01
              0.896048148387369E+00
             -0.907304133817417E+00
              0.808728405758156E+00
             -0.186224130301219E+00
             -0.785975368634160E+00
             -0.142468593236479E+01
             -0.415537754736226E+00
             -0.450251307268164E+00
             -0.440103715752143E+00
              0.104282778671401E+01
              0.204264507395363E+01
             -0.121976672976433E+01
             -0.218133700777289E+01
             -0.500079227060617E+00
              0.297773260191921E+01
             -0.148471505507634E+01
              0.833278956453607E+00
             -0.311211160703365E+00
             -0.163856704985665E+01
              0.753658959221463E+00
              0.863664775993208E+00
             -0.383947604138681E+00
              0.776872911450241E+00
             -0.689471097881022E+00
             -0.160777635089060E+01
              0.266788319070949E+01
              0.124386379447394E+01
              0.616141294222952E+00
              0.350795514932617E+00
              0.596556260378338E+00
              0.220876029020747E+01
             -0.713560699648560E+00
              0.654500800374200E-01
             -0.376522754075691E+01
              0.519719598200515E+00
             -0.180401978738437E+01
              0.332137178299065E+00
              0.581324086106500E+00
             -0.982383595876328E+00
             -0.136976939073468E+01
              0.892822943699585E-01
             -0.810582210008274E+00
              0.117670219307750E+01
             -0.122173113238817E+01
             -0.198333567756059E+00
             -0.103572454724349E+01
             -0.102695717685847E+00
              0.889029749326662E-01
              0.560838037371295E+00
             -0.164310163097632E-01
             -0.179527243564674E+00
              0.176148722554947E+01
              0.247689734695435E+01
              0.132182703836602E+01
              0.183048279693839E+01
             -0.368917530596822E+00
              0.245673253768651E+00
              0.141383052356005E+01
              0.770151490683286E-01
             -0.204961646884768E+01
             -0.114740304615183E+01
             -0.129976048585664E+01
             -0.794306048544224E+00
              0.672635305425565E+00
             -0.328111615912128E+01
             -0.326331953876654E+00
              0.124218834848609E+01
             -0.108986873390170E+01
             -0.798043816010772E+00
              0.151585368311190E+01
              0.132497602460108E+01
             -0.762197244711675E+00
              0.810542783369448E+00
             -0.660149887330085E+00
              0.102537996015963E+01
              0.216851736704951E+00
              0.319259630947681E+00
             -0.222619269514261E+01
             -0.130604624388432E+01
             -0.234594255166297E+00
             -0.563111861898203E-01
             -0.114720145028782E+01
              0.296819553754696E+01
             -0.344977646163784E+00
             -0.728286422852508E+00
              0.109119906067431E+01
             -0.123340379948338E+01
             -0.992820548456679E+00
              0.855654289422525E+00
              0.311494346327102E+00
              0.270146543960397E+00
              0.397039106309878E+00
             -0.288916273301364E+00
              0.291488253311425E+00
              0.159600919698466E+01
             -0.763885000723925E+00
              0.586253704252485E+00
              0.239517438499885E+01
              0.837914267294936E+00
             -0.131169689872927E+00
             -0.531623663881420E+00
              0.418622984561514E+01
             -0.644439394564525E+00
              0.103180621272055E+01
              0.803514565356783E+00
              0.794665382892645E+00
              0.252843808514052E+01
              0.125550682408154E+01
             -0.162282895143598E+00
              0.657098983671933E+00
              0.138314759428655E+01
              0.105963233888634E+01
             -0.164861894618202E+01
              0.253387478855926E+01
             -0.231558207901047E+01
             -0.329964041990920E+00
              0.153496517080784E+01
              0.394206564681141E+00
              0.142274689649433E+00
              0.783776796743420E+00
              0.427230435343843E+00
              0.895055755891864E+00
             -0.169778316695846E+01
              0.102661222607274E+00
             -0.628494442118857E+00
             -0.190716731512948E+00
             -0.597768703080810E-01
             -0.322705266931730E+00
             -0.168887922939039E+00
              0.224521383843955E+01
             -0.139763195866299E+00
             -0.789999651191400E+00
             -0.374610859996327E-01
              0.375343869253829E+00
             -0.172452011153791E+01
             -0.142516562984113E+01
             -0.919920535550979E+00
             -0.169001025124763E+01
             -0.511344709780214E+00
             -0.109407166153465E+01
              0.514141908387665E+00
              0.356459020748461E-01
             -0.347367769606587E+00
             -0.227279687573610E+00
              0.141034161350983E+00
             -0.424979494215739E+00
              0.173179954637880E+01
             -0.234110830872088E+01
             -0.358339501395657E+00
             -0.390124511420118E+00
              0.421184440150242E+00
              0.530507853861868E+00
             -0.136867265371157E+01
             -0.356070488840327E+00
              0.120109718829508E+01
             -0.547889327354478E+00
              0.346529133391602E+00
              0.932173065642283E+00
             -0.150806325880204E-01
              0.312221924127754E+01
             -0.352009594884507E+00
             -0.946522318982325E+00
              0.353695530950855E-01
             -0.736613105286915E+00
              0.146851483562130E+01
             -0.125273369649309E+01
              0.347449276127577E+00
              0.140884102742109E+01
             -0.365894063612618E+00
              0.317536362298030E+01
              0.345184860197063E+01
             -0.189463129837894E+01
              0.153803185982929E+01
              0.599996154618232E+00
             -0.150320902690434E+01
              0.505236339346317E+00
              0.110871323359247E+01
              0.123452601625750E+01
              0.133240797519193E+00
              0.434466385210381E+00
              0.198613792424680E+01
             -0.617096893952827E+00
              0.246482460793209E+00
              0.186549074992852E+01
             -0.989669162977462E+00
             -0.606531871997391E+00
              0.156572897466072E+01
              0.819803751416023E+00
              0.210010387673385E+01
              0.876565494348453E+00
              0.336668320741932E+00
              0.683961092100993E+00
              0.113424858537104E+01
             -0.135522981712112E+01
              0.176975857178787E+00
              0.666314105131982E+00
              0.286196073206707E+00
              0.634751372377509E+00
             -0.165105499233332E+01
              0.883810159091627E+00
             -0.117564287025639E+01
             -0.824359859479360E+00
              0.484385914267202E+00
             -0.259275600128755E+00
              0.158490427577331E+01
             -0.447810556764882E+00
              0.784863981629018E+00
              0.809043005632773E+00
              0.209508247042707E+01
              0.141561015458039E+01
              0.137463830474312E+01
             -0.145004730952563E+00
             -0.276988573302321E+00
             -0.797388944237609E+00
              0.218074176370470E+01
              0.222917794199314E+01
              0.105406614831602E+01
             -0.745371470256092E+00
              0.133932905582140E+01
             -0.457971670925161E-01
              0.503353658283558E+00
              0.184808096073483E+01
             -0.663177647107682E-01
             -0.276511286369870E+00
             -0.597963900531788E+00
             -0.159508304340683E+01
              0.259998941516369E+01
              0.133100623086605E+01
             -0.171838232128831E+01
             -0.570361245813473E+00
              0.701485138282264E+00
             -0.305663834446667E+00
              0.176498126539305E+01
              0.426440152782657E+00
              0.218827047607985E+01
              0.784038014573810E+00
             -0.678728424331718E+00
              0.533855640653902E+00
             -0.189117474885427E+00
             -0.723301771825920E+00
              0.471498888847305E+00
              0.466522432965185E+00
              0.239414567697075E+01
              0.206626395871072E+01
              0.151902940940016E+01
              0.184042680507751E+01
              0.168112783491858E+00
             -0.692735148802985E+00
              0.357030292470023E+00
             -0.917611026990621E+00
             -0.149236323728238E+01
             -0.156040652512970E+01
             -0.858241099291124E+00
             -0.292139874073480E+01
             -0.970212240137083E+00
             -0.232911678891507E+01
              0.537859415411930E+00
             -0.122324082314719E+01
              0.133299451214790E+01
             -0.262402992855530E+01
             -0.800396945988770E+00
              0.111856297618928E+01
              0.595894134724206E+00
             -0.241686092735663E+01
              0.147711570177864E+01
             -0.759672646942017E+00
              0.149097480210189E+01
             -0.788190129953191E+00
             -0.212939245938550E+01
              0.486557133004816E+00
             -0.178501701902746E+01
             -0.147840802260102E+00
             -0.845770946547597E-02
              0.115297587296283E+01
              0.338809287461689E+01
             -0.118310719652827E+01
             -0.102879705480711E+01
             -0.155267425089351E+00
             -0.240133402451304E+00
             -0.216832308538754E+01
             -0.154598053045648E+01
              0.136904594845817E+01
             -0.531015892945954E+00
              0.560859258455572E+00
             -0.133737381998372E+01
             -0.415129808793189E+00
             -0.113166055940343E+01
              0.131113355569130E+01
              0.391058072302499E+00
             -0.648433860857629E+00
             -0.446141866662507E+00
              0.334419561358799E+00
             -0.223171273571060E+00
              0.110545392191271E+01
             -0.721523655198556E+00
              0.246712689952009E+00
              0.886363342066847E+00
              0.376475999568724E+00
             -0.598419511921202E+00
              0.419761045918158E+01
              0.155703950702662E+01
              0.256292172201402E+00
              0.185393607205011E+00
             -0.162746399538401E+01
              0.880419240711339E+00
             -0.209430322767782E+01
             -0.905236635997323E+00
             -0.159788241970526E+01
             -0.475426892220760E+00
              0.157059664545753E+01
             -0.155994377038612E+01
              0.670557984370614E+00
             -0.880470807461382E-01
              0.555529146927247E-01
             -0.869510451875946E+00
             -0.112560181651168E+01
             -0.112435314742418E+00
             -0.969610061804236E+00
             -0.642113599130865E+00
             -0.106353535800614E+01
             -0.164214922428726E+00
             -0.870449125958132E+00
             -0.133355388581136E+01
              0.614083536412092E+00
             -0.376204657484801E+00
              0.616012651925590E+00
              0.249673775848519E+00
             -0.202652202348634E+01
             -0.140398504976271E+01
             -0.129535302535103E+01
              0.913718362417303E+00
             -0.149105095297032E+00
             -0.170373163404656E+01
              0.151211844369271E+01
             -0.114884896988801E+01
              0.154820298203408E+01
             -0.822021238121960E+00
             -0.133397223315490E+01
              0.710500596588302E+00
             -0.196758872334202E+01
             -0.883173349432488E+00
              0.161534656171840E+01
              0.533403721910210E+00
             -0.111691539572680E+01
              0.148107643508107E+01
             -0.439688820174240E+00
             -0.987208552590605E+00
             -0.824851067302070E+00
             -0.140143624939426E+01
              0.658976942925949E+00
             -0.235060188892220E+01
             -0.210340620121392E+01
             -0.206395429118103E+00
             -0.780643430187345E+00
             -0.161069220377650E+01
              0.205473485212120E+01
              0.370294895318931E+01
             -0.644869453824411E+00
             -0.801296383889820E-01
             -0.165745191101546E+01
              0.178017641250828E+01
              0.585179763783205E+00
             -0.523705139588525E+00
             -0.995685886707347E+00
              0.406955186298179E+00
             -0.164376145040447E+01
             -0.313451817455592E+00
             -0.237604307904783E+01
              0.914528911868768E+00
              0.340749419675193E+00
             -0.141018182938204E+00
             -0.264126613214120E+00
             -0.108101433044829E+01
             -0.320721514147770E+00
              0.364979743933657E+01
             -0.432603013667839E+00
             -0.127556038070139E+01
             -0.185228901180565E+01
              0.364138366209396E+00
             -0.100393032359862E+01
              0.240137474769026E+00
              0.890177674709576E+00
              0.119492372469017E+00
              0.948082138121504E+00
              0.459991241748843E+00
              0.159081249525822E+01
              0.721218024855204E+00
             -0.960593410649730E+00
              0.139572489311056E+01
              0.940844917716239E+00
              0.346090896631695E+00
              0.101756641757417E+01
             -0.794180017181513E+00
              0.193857135071216E+01
              0.660971042470781E+00
             -0.925109420462202E+00
             -0.149515388685161E+00
             -0.442031220982422E+00
              0.456773578598645E+00
             -0.737335037381520E+00
             -0.265409829418112E+00
             -0.346356328648358E+00
              0.220636484933574E+01
              0.156513537178383E+01
             -0.181158252393739E+01
             -0.182647341319654E+00
             -0.139379491265679E+01
             -0.387427834095396E+00
             -0.575011948917444E+00
              0.286925245652656E+00
             -0.112375827167757E+00
             -0.744784526558348E+00
              0.420007680843188E+00
             -0.241666924158483E+00
             -0.226260380582969E+00
              0.236664820467403E+01
              0.438331623906595E+00
             -0.221860500967779E+01
             -0.106223428726219E+01
              0.255384054787408E+01
              0.639512040760319E+00
             -0.221975029656271E+00
              0.297433878681798E+01
             -0.505015788302641E+00
             -0.219310811994478E+00
             -0.287562093383237E+00
              0.420614496242605E+00
              0.851381793448548E+00
              0.729156216746110E-01
              0.770592788276897E+00
             -0.331889048504969E+00
             -0.101469146624321E+01
             -0.104682379446128E+01
             -0.132424299651388E+01
              0.111978069308404E+01
              0.406199219674335E+00
              0.102047537412484E+01
              0.424788181369030E+00
              0.242671862038886E+01
              0.534176362329294E+00
             -0.207293636669814E+01
             -0.890111054044622E+00
              0.133645629517675E+00
             -0.760690774050739E+00
              0.170753268116314E+01
             -0.440021087289345E+00
              0.481034764744253E+00
              0.147620535046430E+01
             -0.217316150745249E+01
              0.401399319517889E+01
              0.521503398217162E+00
              0.650143173827159E+00
              0.101351223782547E+01
              0.129042892464955E+00
             -0.782516139742064E-01
              0.901224360277642E+00
             -0.926608043539835E+00
              0.230734731947023E+01
              0.201220850137592E+01
             -0.104443702016079E+01
              0.468193878738608E+00
              0.195901574826063E+01
             -0.603815306670599E+00
              0.519198076715456E+00
              0.954182052438402E+00
              0.116002015676489E+01
             -0.202873972871461E+01
             -0.194905839658912E+00
             -0.786196493093756E+00
             -0.171342552201134E+00
             -0.161571686737689E+00
              0.122379526144936E+00
             -0.405526160422180E+00
             -0.788950690791030E+00
              0.389591249047764E+00
              0.201234196993449E+00
              0.144656173494308E+01
             -0.122137617142452E+01
              0.117296507384843E+01
              0.133739884199111E+01
             -0.322182131135614E+00
              0.209930781322747E+01
             -0.182442863748238E+01
             -0.280542516127563E+01
             -0.181059102560867E+00
             -0.189154062010068E+00
              0.213448954068767E-01
              0.208158703509508E+01
             -0.728656419465925E-01
              0.113761723620908E+01
              0.155323609238063E+01
              0.105992171834715E+01
             -0.138184744782283E+00
              0.166349108299279E+01
             -0.454454357387860E+00
             -0.102936728644187E+01
             -0.105100095720204E+01
              0.242849431688259E+00
              0.101478821495866E+01
             -0.966625260150282E-01
              0.962599436366164E+00
              0.196310073369332E-02
              0.155988959958110E+01
              0.499302788116737E+00
              0.205589387410033E+00
             -0.469759365895328E-03
              0.824249624770468E+00
              0.111391781872966E+01
              0.446224930198793E+00
             -0.903229494888063E-01
             -0.145534966213407E+01
              0.810572489918783E+00
              0.559822548292928E+00
              0.943894020148772E+00
              0.842039197610336E+00
              0.976482401669457E+00
             -0.244062449082932E+00
              0.866208953098671E+00
             -0.766973487449299E+00
             -0.527237360973416E-01
             -0.145092684738621E+01
             -0.955309505247663E+00
              0.116934410656220E+01
             -0.240633923445194E+01
              0.696574079140277E+00
              0.381098738143233E+00
              0.231102088024135E+01
             -0.461912096270561E+00
              0.859370116520030E+00
             -0.322399213737580E+00
             -0.133352951967516E+01
             -0.185508950297775E+01
             -0.356425696033394E+00
             -0.245580951244134E+01
              0.280559209031420E+00
             -0.578777293469085E+00
              0.871900095356413E+00
              0.597595276468670E+00
             -0.744542051234616E+00
             -0.774558348818555E+00
              0.116428487161880E+01
             -0.150973438219913E+01
             -0.345822837404100E+00
             -0.455236915021674E+00
              0.681994286979408E+00
              0.490933023613884E-01
              0.115903831944909E+00
             -0.445532611104629E+00
              0.146255266568563E+01
             -0.150355452288427E+01
              0.225654810725599E+00
              0.160963660074341E+01
             -0.959545154322038E+00
              0.788757439952947E-01
             -0.260085548027966E-02
             -0.182281857610613E+01
             -0.112689912693272E+01
             -0.925250774765927E-01
              0.807380414622077E+00
              0.902508956101006E+00
              0.125574757745681E+00
             -0.287631572094984E+00
              0.505443811704698E+00
             -0.113796628379260E+01
             -0.920949898008843E-01
             -0.141615006115210E+01
             -0.699342605109267E+00
              0.134915629331407E+01
             -0.822832430158997E+00
              0.185433451443233E+01
             -0.588752330984972E+00
              0.950553234590641E+00
              0.688013186235898E+00
             -0.162701595933999E+01
             -0.739012208569732E+00
              0.237367603816725E+00
             -0.107676923453938E+01
             -0.111596635449083E+01
             -0.237196343835752E+01
             -0.152830684611427E+01
             -0.136276083414491E+01
             -0.122421979692258E+01
              0.290177580170967E-01
              0.613331520399854E+00
              0.233400303760697E+00
              0.690928348435478E+00
             -0.158624256889711E+01
              0.339162006744004E+00
              0.684178045439091E+00
             -0.186744756965440E+01
             -0.158483198318780E+01
             -0.102812609214043E+01
             -0.821761685336843E+00
              0.440222272835365E+00
             -0.661803135469583E-01
             -0.119480440827764E+01
              0.828408647080485E+00
             -0.585478314363166E+00
              0.141978176964563E+01
             -0.237631849374428E+01
              0.167522101689380E+01
             -0.236100607743877E+00
             -0.116650059668140E+01
             -0.772038471500471E+00
             -0.137742186564087E-01
              0.130569428208433E+01
             -0.190903572533814E+01
             -0.360225039008120E+00
             -0.449804893270828E+00
              0.115982980549339E+01
              0.216321304817725E+01
             -0.267880998844566E+01
              0.250711013704273E+01
              0.111281329678119E+01
             -0.207167038755972E+01
             -0.890744131807610E+00
              0.211156168182018E+01
              0.155331560986317E+01
             -0.536219751646250E+00
             -0.194939240271996E+00
              0.457620362847873E+00
              0.206273237653506E+01
             -0.158458437885347E+01
              0.387896529553350E+00
             -0.191965288143330E+00
              0.770808647400100E+00
             -0.191894048918480E+01
             -0.990154618917236E-01
             -0.783448122590383E+00
              0.130862148620730E+01
              0.106548538094359E+01
             -0.238057568881197E+01
             -0.130083650719120E+01
             -0.579692614451565E+00
             -0.112768312342651E+01
             -0.364791550604917E+00
             -0.551506166761297E+00
              0.122446396672317E+01
              0.119822280696938E+01
             -0.101609196943279E+00
             -0.116595779628916E+01
             -0.229018590594412E+01
              0.132774028915441E+01
             -0.128643441807237E+01
             -0.964427505310434E+00
              0.199927333339335E+00
             -0.969689649109171E+00
             -0.110717208825491E+01
             -0.812767631763491E+00
             -0.132084811326683E+01
             -0.674400259091678E+00
             -0.136132916017462E+01
              0.153412408971980E+01
              0.165991777309131E+01
             -0.244092607927154E+00
             -0.597468439959139E+00
              0.695755247373384E-01
              0.114492153246910E+01
             -0.234650947913308E+01
             -0.647800602137858E+00
              0.137948663674417E+01
              0.186370195828706E+01
             -0.327909185255043E+00
              0.319272718720363E+00
              0.140577918185093E+01
              0.407415532958631E+00
             -0.286234120278568E-01
             -0.105592930510264E+01
              0.423943290372437E+00
             -0.910550432930076E+00
             -0.303033952908640E+00
             -0.552375807104868E+00
             -0.414947319396386E+00
              0.601962917616184E+00
              0.215055394978547E+01
             -0.168338763678809E+00
              0.645487682946104E-01
             -0.247767459454717E+01
             -0.491966115532342E+00
             -0.100037053906807E+01
              0.451766554290050E-01
             -0.121063191526766E+01
              0.236145454620171E+01
              0.235686638062902E+01
              0.505691244505956E+00
             -0.565347411237410E+00
              0.453222856707323E+00
              0.611963219111753E+00
             -0.124002754124049E+01
             -0.205150811913285E+00
              0.461774913468886E+00
              0.360341148353332E+00
              0.139973432515410E+01
              0.112248494158978E+01
             -0.592183765421900E+00
              0.661543770914320E+00
             -0.262378534126177E+01
             -0.969501590183077E-01
              0.243075371444238E+01
              0.475935959341985E+00
             -0.347022876624727E-01
              0.742400052678475E+00
             -0.640161967631351E+00
              0.244135356612824E+01
             -0.487060563248933E+00
              0.215386960345158E+01
              0.101634550101656E+01
             -0.117639144373482E+01
              0.885234203518770E+00
             -0.769644798975382E+00
             -0.182868664022841E+01
             -0.212187546457498E+00
             -0.149388472607706E+01
             -0.142945751643305E+01
             -0.545529539077565E-01
              0.960466763963630E+00
             -0.309308056666763E+00
             -0.879159913040105E+00
              0.192439022719482E+00
             -0.181521812326820E+01
             -0.122217716622632E+00
             -0.234762153823040E+01
              0.150286618146787E+01
             -0.125244468975818E+00
             -0.132337956671644E+01
             -0.510264733010511E+00
              0.469180732419874E+00
             -0.969928166421177E+00
             -0.121688786869691E+01
              0.240465960237885E+01
             -0.734302398192733E+00
             -0.110505025908718E+01
              0.813998652117625E+00
             -0.504541923718805E+00
              0.147732632763883E+01
             -0.838688638842555E-02
              0.120433691706211E+00
              0.289401574116290E+01
             -0.319490804433480E+00
             -0.102847541735481E+01
             -0.122965810478323E+01
             -0.144500403761565E+01
             -0.991428404868074E+00
              0.812438934982211E+00
              0.751145198897319E+00
              0.758084225889037E+00
              0.203288200150238E+01
              0.108437137075263E+00
              0.572408601062603E+00
             -0.163701006805014E+01
              0.386473011895774E-01
             -0.513498445999054E+00
             -0.725725846470958E+00
             -0.943953075300961E-01
              0.907418036516484E+00
              0.102647984715054E+01
             -0.481301044999259E-01
              0.292692348775876E+00
              0.777778685773565E+00
              0.997236554166292E+00
             -0.611937607980680E+00
             -0.264598540545926E+00
              0.342177046766778E-01
             -0.706628659894463E+00
             -0.152295060206022E+00
             -0.967706757750516E+00
              0.207534151325054E+01
              0.165660532628971E+01
             -0.431515810872408E+00
              0.393125848596963E+00
             -0.130225379742867E+00
             -0.765820023387437E+00
              0.985650729235962E+00
             -0.250800634024205E+00
              0.971724934459639E+00
             -0.133255761261799E+01
              0.480559061318662E+00
             -0.212030358641158E+00
             -0.147782682150124E+01
             -0.649252786312825E+00
              0.652677345148424E+00
             -0.261601520305218E+01
              0.104495791264452E+01
              0.129137930245076E+01
             -0.246758255494470E+00
             -0.184794159252197E+00
             -0.819917409138959E-01
              0.727002534449660E+00
             -0.900330775830138E+00
              0.856026843679099E+00
              0.871190500717862E+00
             -0.258512174063238E+01
             -0.974181738219329E+00
              0.640626712070415E+00
             -0.347945214542836E+00
              0.123752286369264E+01
             -0.166186928472758E+01
             -0.174577630056966E+00
             -0.109186515223071E+01
             -0.347779325916264E+01
              0.213754678595672E+01
             -0.165373225223747E+01
             -0.177621175938171E+01
              0.177287615591797E+00
              0.349617371471503E+01
              0.160034089033936E+00
             -0.804637279751036E+00
             -0.189450351469969E-01
             -0.129097969391358E+00
             -0.240171690602151E+01
             -0.154519598305798E+01
              0.229945612817406E+01
             -0.275446521457649E+00
             -0.101505754133813E+01
              0.137537651584765E+01
             -0.898147269240619E+00
              0.946899840637798E+00
              0.133708427017112E+01
             -0.152001649239750E+01
             -0.761316307947531E+00
             -0.882240413749624E+00
             -0.417181211481857E+00
             -0.552803344174347E+00
             -0.416424245195154E+00
              0.509896438914605E+00
             -0.942063227494255E+00
              0.770721193824592E+00
              0.154467110850408E+01
             -0.274106670744682E+00
             -0.518264630441571E+00
              0.377887649509310E+00
              0.148837756485342E+01
              0.146472456562077E+01
              0.183228280060587E+00
             -0.228613968947627E+00
             -0.244576397577750E+00
             -0.144435018581035E+01
              0.108174529342199E+01
             -0.699500415225334E+00
              0.578828752293139E+00
             -0.370195537355524E+00
              0.743197809513848E+00
              0.466725045552392E+00
             -0.222000935247836E+01
             -0.713755950378975E+00
             -0.212777001460775E+01
             -0.105478827566515E+01
              0.158585070684687E+00
             -0.515723794935062E+00
              0.919575544108087E+00
             -0.759807932903060E+00
              0.648262341966599E-01
              0.207501872824142E+00
              0.198806972671025E+01
              0.101837057261296E+01
             -0.824279631120020E+00
             -0.122458170906192E-01
              0.393527597911595E+00
              0.101092100410683E+01
             -0.624952407759949E-03
              0.149675202000804E+01
              0.779157144085542E+00
              0.243607761408112E+01
              0.123028681617264E+00
              0.174356203328587E+01
             -0.729861483917810E+00
             -0.108450865125366E+01
              0.122950592280839E+00
              0.263085530487494E+00
              0.683134185927144E+00
             -0.421773320482774E+00
             -0.337405080194257E+00
              0.613145078857900E+00
             -0.126097430927432E+01
             -0.155712358428584E+01
              0.212564462006358E+01
             -0.174887924459068E+00
             -0.106467441859536E+01
             -0.128827018421160E+00
             -0.376885853949251E+00
              0.108052452109225E+01
              0.988842472689871E+00
             -0.534381796547999E+00
             -0.309786146082303E-01
             -0.730213559989453E+00
             -0.940013231995975E+00
             -0.711353304766561E+00
             -0.264872821394899E+01
             -0.346317949487753E-01
             -0.181049951324464E+01
             -0.158045660966239E+01
             -0.107430576558252E+01
              0.555522670331328E+00
             -0.106714073890769E+01
              0.615187297440886E+00
             -0.169543977391527E+01
             -0.493781502312096E-02
             -0.115181257316695E+01
              0.173312683459089E+00
              0.214352154820900E+00
              0.885450551479360E+00
             -0.538443299339582E+00
             -0.521500000637332E+00
              0.815718232607003E+00
              0.163421678426370E+01
              0.870860068924931E+00
              0.273296976204648E+00
             -0.197856430206500E+01
             -0.378512360550708E+00
             -0.756531259823999E+00
             -0.169508208983749E+01
              0.116593507603524E+01
             -0.919917138785145E+00
             -0.200354126821637E+00
             -0.698300903361419E+00
             -0.272703262407514E+01
              0.151330768258508E+01
             -0.468202309399452E+00
              0.106392057089256E+01
             -0.201815946140357E+01
              0.175803957660120E+01
              0.148841803337451E+00
             -0.749775312698812E+00
              0.217434612042988E+00
             -0.594242113792930E+00
             -0.178132002367456E+01
              0.481704607950436E+00
              0.934354811312502E+00
              0.324810311910895E-03
             -0.940460538993239E+00
             -0.382492146984837E+00
              0.533083295846605E+00
              0.958361966997956E+00
              0.170562468924797E+01
              0.625554598639013E+00
             -0.631750976094244E+00
              0.259098855638734E+01
              0.656246123861581E+00
              0.120896674027457E+01
             -0.422389424193998E+00
              0.819521932548515E+00
              0.580473389675506E+00
             -0.167588296822706E+01
             -0.598860895605520E+00
             -0.106997324961245E+01
             -0.102579177597101E+01
             -0.289519068405291E+00
             -0.286882544247302E+00
             -0.115652156785779E+01
             -0.305360923352133E+01
             -0.747335220475939E+00
              0.415545792326569E+00
              0.158122368129590E+00
              0.356129930832528E+00
              0.116915541045490E+01
              0.368950537973650E+00
              0.862734599565240E+00
             -0.120251684218293E+01
              0.117962406183178E+01
             -0.113952750483402E+01
             -0.187184066494122E+01
              0.521449044527422E+00
             -0.109221841577497E+01
             -0.111093893681971E+01
             -0.433188954233614E+01
             -0.220772395614490E+00
              0.225440890506451E+01
              0.115701537763255E+01
             -0.272139593448056E+00
             -0.277262917679803E+00
              0.105737471752181E+01
              0.174052394528565E+01
             -0.106386116342891E+01
             -0.354348331795579E+00
             -0.949880335350173E+00
             -0.920764688355529E+00
             -0.853462011123400E+00
              0.355818703036245E+00
              0.194059253543948E+01
             -0.178275675889253E+01
             -0.146600552376577E+01
              0.790042728183113E-01
             -0.365338603132372E+00
             -0.497117980464053E+00
             -0.246492538712209E+01
              0.160911529875259E+01
              0.569692901705402E+00
              0.208413945758151E+00
              0.142938591039596E+01
             -0.859792523146581E+00
              0.915401971972570E+00
              0.789506538986050E+00
              0.102769305693325E+00
             -0.218760194416102E+00
              0.275370015990126E+00
             -0.411201219944578E+00
              0.136820189884788E+01
             -0.113486264862982E+01
              0.121466029352032E+01
              0.259232056681443E+00
              0.409287295764374E+00
              0.548580067632487E+00
             -0.220023201751501E+01
              0.220573845510701E+00
             -0.178533945620758E+01
             -0.133120071488136E+01
             -0.131826942990552E+01
             -0.137068537608388E+01
              0.287786656512630E-01
              0.464710844360140E+00
              0.133945942635701E+01
              0.224467964432607E+00
              0.384905939094600E+00
             -0.190741419170099E+01
             -0.770379595468861E+00
              0.882194439173921E+00
             -0.285482534082115E-01
             -0.627076412478553E-01
             -0.260692013736211E+00
              0.994140704570174E+00
             -0.247749816166890E+01
              0.364072726823175E+00
              0.623702325001300E+00
              0.109258550284530E+01
              0.103213963953404E+01
             -0.154853555333379E+01
              0.383900731882621E+00
              0.154140690381230E+00
              0.193414364315066E+00
              0.946746419887390E-01
             -0.541446911844584E+00
             -0.111866554770612E+01
              0.464987382942355E+00
              0.160309799688233E+01
             -0.858126400177603E-01
              0.355436554347371E+00
              0.330473285367743E+00
             -0.812910656831274E+00
             -0.828731822186246E+00
             -0.329820202113769E+01
             -0.106754374013873E+01
             -0.150994705532721E+01
             -0.198209782403136E+00
             -0.181124109928394E+01
              0.206665397841908E+01
             -0.893170133250454E+00
             -0.147040983877296E+01
             -0.428101093440855E+01
              0.184547551337656E+01
              0.387185121462341E+00
              0.137422153132908E+00
             -0.165868243546654E+01
              0.124341055646600E+00
             -0.408151372721242E+00
             -0.858454145713266E+00
              0.215897394405709E+00
              0.862913911170949E+00
              0.159991635565415E+00
             -0.510710683321168E+00
              0.478751351569890E-01
              0.200431649663653E-01
              0.361690337547680E+00
             -0.179503877392218E+01
              0.195366637274116E+01
             -0.112772668284278E+01
             -0.708304684273877E+00
             -0.131247832562218E+01
             -0.286319802827379E+01
              0.160707938430955E+00
             -0.148536680677482E+01
             -0.553025057737050E+00
              0.857412857336922E+00
             -0.703631707439179E+00
             -0.244096725663379E+00
             -0.332623291204962E+00
             -0.624314808041181E+00
              0.682942630592525E-01
              0.139135150981067E+01
             -0.141385298534109E+01
              0.274458833664258E+01
             -0.623986853250530E+00
              0.918232442235981E+00
             -0.404632214920905E+00
              0.353675189047751E+00
             -0.335333044264342E+00
              0.124672288949756E+01
              0.173983286277347E+01
              0.497986814920781E+00
              0.131903301636958E+01
             -0.862072665339217E+00
             -0.152940863019161E+00
             -0.674936612290781E+00
              0.171789629713582E+01
              0.148318819911841E+01
              0.109306443386026E+01
             -0.377086601903187E+00
             -0.722044194169298E+00
              0.662994565039488E+00
             -0.747257432205854E+00
             -0.393488246074366E+00
             -0.182465599955989E+00
             -0.914554179221437E+00
              0.136979272133998E+01
             -0.261949438161493E+00
              0.991069657273515E+00
              0.523374302957287E+00
              0.444695344225813E+00
             -0.941218317852608E+00
              0.757273890405427E+00
             -0.383521619580861E+00
             -0.201489912961272E+00
             -0.388464779543849E-01
             -0.135611891051922E+01
              0.213294884596265E+01
             -0.773751047813729E+00
              0.101292322625106E-01
              0.628138321107302E+00
              0.541190307207640E+00
              0.206500381268070E+01
             -0.597648588483503E+00
              0.206253103947434E+01
              0.183034150058485E+01
             -0.257246413763788E+01
              0.227024183435031E+00
             -0.516051202937048E+00
              0.292252983235935E+00
              0.122972284325603E+00
              0.536147819154843E+00
              0.173480800577653E+01
              0.260742289545051E+01
             -0.204007810732676E+01
              0.208817554672279E+01
             -0.266688701694158E+01
             -0.225393610026739E+01
             -0.365698704171823E+00
              0.383081984029907E-01
              0.208949061743836E+01
              0.933488201986389E+00
             -0.432109224294868E+00
             -0.234059852989096E+01
              0.182979705679725E+01
             -0.115875407923282E+01
              0.327362628204355E-01
             -0.115201688855084E+00
              0.353170326672119E+01
             -0.661667055120748E+00
             -0.285296290230555E+01
              0.837527549673439E+00
             -0.441046876779574E+01
              0.358000537691396E+00
             -0.104103361703350E+01
             -0.462502885443042E+00
             -0.734517342254847E+00
             -0.160987963036966E+01
              0.102732102751607E+01
             -0.958191218397635E+00
             -0.343069234792969E+00
             -0.206875728220489E+01
             -0.138711448133424E+00
             -0.143448797353173E+01
             -0.207336699265566E+01
             -0.301790676339206E+01
              0.238891585956019E+00
             -0.945280079291797E+00
              0.160069832159007E+00
             -0.330131871822902E+00
             -0.222993609367229E+01
             -0.172054052588224E+01
             -0.152250273983795E+01
             -0.152301249583064E+01
              0.142185924759447E+01
              0.229015461816936E+00
             -0.132373512378728E+01
             -0.636661563136437E+00
             -0.717470433332938E+00
              0.107930323280346E+01
             -0.882602352674575E+00
             -0.201266282258613E+00
             -0.770438533746171E+00
             -0.108687280114868E+01
             -0.108743449937372E+01
              0.111877270694374E+01
             -0.356625703837434E+00
             -0.245035743100052E+01
              0.214748136942039E+01
              0.126657604214298E+01
              0.121825727045271E+00
             -0.214615696653654E+01
             -0.204877553961954E+01
              0.200426462908275E+00
              0.423662877613644E-01
             -0.906742790172913E+00
             -0.125222231424376E+01
              0.887205892078864E+00
             -0.168433696132704E+00
              0.732339923291672E+00
              0.128735745875752E+01
              0.973494051059204E+00
              0.718892911210983E+00
              0.611561006260172E+00
             -0.606688250783065E+00
             -0.386263272614014E+00
             -0.485396871979469E+00
             -0.101852746502970E+01
             -0.131528677855705E+01
             -0.168961544658058E+01
             -0.100362628051186E+01
             -0.324066293248782E+00
             -0.207953609288188E+01
             -0.394576051692319E+00
              0.891861732700589E+00
             -0.217350315428003E+01
              0.919182555814847E+00
              0.711408497810843E+00
             -0.191877436764301E+01
             -0.153626867015134E+01
             -0.575504749285234E+00
              0.400418346814762E+00
             -0.111183514550120E+01
              0.202172870338871E+01
              0.179266565930937E+01
             -0.208327116367509E+01
              0.122454929375728E+01
              0.983746852963394E+00
              0.257444233369015E+00
              0.555143652715612E+00
             -0.114429782186132E+01
             -0.419177061223783E+00
              0.143438607154284E+00
              0.532851963746327E+00
              0.116094099922722E+01
             -0.147940626198009E+01
             -0.248933727761388E+00
              0.469504340305541E+00
              0.126833873719958E+00
             -0.890764590594820E+00
              0.500812104253089E+00
             -0.710032053636374E+00
             -0.468828494494516E+00
              0.160722921845835E-01
             -0.167475683369199E+01
              0.946010326166480E-02
             -0.355734909294105E+00
             -0.402593809570007E+00
              0.319364184958191E+00
             -0.146181847920103E+01
              0.153328395177590E+01
             -0.606632374805206E+00
             -0.359972897666168E+01
             -0.235083127115028E+01
              0.971159180755159E+00
             -0.106521261188222E+01
             -0.580786766227440E+00
             -0.696783266407224E+00
             -0.492344909672922E+00
             -0.279407024729733E+01
             -0.990816309551263E-01
             -0.169110967607297E+01
             -0.865843323776991E+00
              0.612359743846699E+00
              0.208312527258607E+01
              0.850101984262897E-01
              0.643951781927070E-01
              0.161947847722624E+01
             -0.147596197735120E+01
              0.818426944909183E+00
              0.194370904836278E+00
             -0.134861220417897E+01
             -0.725625825838124E+00
              0.558722273790519E+00
              0.660595758897555E-01
              0.410008554865413E+00
              0.396762759040992E+00
             -0.643146007015359E+00
             -0.817510585491103E+00
             -0.135406512433737E+01
              0.133333028977600E+01
             -0.182424605783684E+01
             -0.134099245097605E+01
              0.395787481530331E+00
             -0.233303129245605E+01
              0.574959889693867E+00
              0.158266473037222E+01
             -0.277458932833668E+00
              0.459657853973074E+00
             -0.833540522940602E+00
             -0.589943604033348E+00
              0.293860149261846E+00
              0.986447926710294E+00
             -0.101395487525012E+01
              0.650190926075343E+00
             -0.380735902693200E+00
              0.751635510475737E-01
              0.559051008045809E+00
              0.335427463323204E+00
             -0.276246975702593E+00
             -0.216299793534311E-01
              0.414223825606154E+00
              0.745531332267825E+00
             -0.191610676987241E+01
             -0.807512023890666E-02
              0.148241790568906E+01
             -0.247280404019953E+01
              0.899594878823486E+00
             -0.313356406394047E+01
             -0.279776425227727E+00
             -0.399470207757574E+00
             -0.971928052166149E-01
             -0.299237625457008E+00
             -0.763548700407373E+00
             -0.222012029346061E+00
              0.421216483606812E+00
             -0.630024187509310E+00
              0.307324620711768E+00
              0.243101577209884E+01
             -0.160151325868507E+01
             -0.708712545599344E+00
              0.108545549855461E+01
              0.574455120521511E+00
              0.110378740207698E+01
              0.475721610116289E+00
              0.565418725469100E+00
             -0.403390886062985E+00
             -0.134813402900935E+01
             -0.118771265632142E+01
             -0.837055111754784E+00
              0.108234843774790E+00
             -0.113456897381769E+01
             -0.320713582725895E+00
              0.178311798448521E+00
              0.657080047257935E+00
             -0.198257170961966E+00
              0.157204355061819E+01
             -0.167483124520412E+01
             -0.645856438101706E-01
             -0.211186165225410E+00
              0.843290683738561E+00
             -0.120436525625783E+01
             -0.768160569819723E+00
              0.479502732815516E+00
              0.130882502611107E+01
              0.199136410991755E+01
              0.879723345877474E+00
              0.122494088714958E+01
             -0.707578526971213E+00
              0.170033826938895E+01
              0.172693093116142E+01
             -0.985920415474055E-01
              0.919343643915306E+00
              0.105516117843434E+01
             -0.579284933097665E+00
              0.289632582636756E+00
              0.178258550270881E+01
             -0.614886051543513E+00
             -0.237543851171655E+00
             -0.171614675232552E+01
              0.653143404993823E+00
             -0.339588883646794E+00
              0.562279282063344E+00
              0.963877149352239E-01
             -0.108404782285366E+01
              0.125116601330940E+01
              0.108421726660089E+01
             -0.803744874617998E+00
              0.448703957641948E+00
             -0.157623027591748E+01
             -0.147767919357904E+01
              0.677177209993120E+00
             -0.186802418650841E+01
             -0.912972874760870E+00
              0.963724816688938E-01
              0.231471502865367E+01
             -0.599846405601076E+00
             -0.273972736501172E+00
             -0.497424736188654E+00
              0.306127111676263E+01
              0.516995380027139E+00
             -0.113788194593332E+01
              0.188382568139945E+01
              0.168652808786529E+01
              0.883184153882096E+00
              0.213598008557025E+01
              0.229294700522974E+01
             -0.159080211467106E+00
             -0.819337721565720E+00
             -0.733409036444300E+00
              0.717878004303325E+00
              0.104436141016550E+01
             -0.173582639860454E+00
             -0.631936233015680E+00
             -0.157047225145428E+01
             -0.639866671252879E+00
             -0.126152620212406E+01
              0.893269714222510E+00
              0.444659304832607E+00
              0.161108726243302E+01
              0.305017828960246E+00
             -0.651261434615854E+00
             -0.244249925906365E+00
              0.109986525887497E+01
              0.303962431786267E+00
              0.160435120023750E+01
              0.152820418822195E+01
             -0.280100455063311E+00
             -0.206946363370984E+00
             -0.269659315645745E+01
              0.136335729314213E+01
             -0.596111702179201E-01
              0.149936829345098E+01
             -0.650833478288321E+00
             -0.175682682248693E+01
              0.516263471106694E+00
              0.194387306365844E+01
             -0.689403884207762E+00
              0.183259647953434E+01
             -0.194961637751296E+01
             -0.692567935048774E+00
             -0.228658073920986E+01
              0.514803797261306E+00
              0.197527087905314E+00
              0.173991738942743E+00
             -0.166819288257776E+01
              0.246068846682899E+01
              0.144290025696306E+01
              0.174772438347420E+00
             -0.137710170507371E+01
              0.549438222895866E+00
             -0.565647450557815E+00
             -0.356363622764597E+00
             -0.688142271991456E+00
              0.484726410599969E+00
             -0.382780963391520E+00
             -0.497887960949948E+00
              0.610716897653607E+00
              0.639996779239659E+00
             -0.242560719254151E+01
              0.531656907035623E+00
              0.179128700591114E+01
              0.115508316230129E+01
             -0.386354723330431E+00
             -0.790889977730669E-02
             -0.998526343853712E+00
              0.154151980231072E+01
              0.304485630811500E+00
             -0.100396025403908E+00
             -0.146162105291234E+00
              0.297414243865833E+01
             -0.135730149718601E+00
              0.714933147050881E+00
              0.198304818705524E+01
              0.264828444702229E+01
              0.163147583305525E+01
              0.110507611193306E+01
             -0.168256403825399E+01
             -0.124096820791176E+01
              0.987548874830305E+00
              0.525590251772261E-01
              0.835958738388682E+00
              0.367659256187745E+00
              0.171689745436274E+01
             -0.215234797681785E+01
             -0.134209822922173E+01
             -0.274511713209870E+00
             -0.235400143926316E+01
              0.501524890356190E+00
              0.118682109522428E+01
              0.134654596031650E+00
             -0.567651261458618E+00
              0.576350931822541E+00
              0.370123711352318E+01
              0.823220442506869E+00
              0.478817729729126E+00
             -0.132445688979688E+01
             -0.164143458359235E+01
             -0.371214131257315E+00
              0.750018920296105E+00
             -0.160520660012269E+00
              0.640542824763100E+00
              0.937168227481045E+00
             -0.172958647894140E+01
              0.728671463490187E+00
              0.104057282210782E+01
              0.158663086166458E+01
             -0.265633475055868E+00
              0.945716564326098E-01
             -0.193782879286589E+00
             -0.124191029295874E+01
             -0.197323883411594E+01
              0.212209772223503E+01
             -0.273041418433336E+00
             -0.149010254295606E+01
              0.170595872558523E+00
             -0.790252661039950E+00
              0.233738319900156E+01
             -0.588627865528082E+00
             -0.100322180624254E+01
              0.950271193045129E+00
             -0.404797426071365E+00
              0.125746921009930E+01
             -0.245559074593444E-01
              0.257142073905568E+01
              0.138134528721561E+01
              0.234758660569877E+00
             -0.104981186470570E+01
              0.758444021201484E+00
             -0.148206328876608E+01
             -0.153272303578858E+00
              0.173875153155219E+01
             -0.691999441373064E+00
             -0.120124721138826E+01
             -0.597388001815006E+00
              0.141237964827938E+01
              0.347943327321794E+00
             -0.223779012971320E+01
              0.924500081441030E+00
              0.239340719069913E+00
              0.272548120517363E+00
             -0.131131145099049E+01
              0.240049755285019E+00
              0.945123120650016E+00
              0.130379738851071E+01
              0.171682671985605E+01
              0.911108449513726E+00
              0.223196740135061E+00
             -0.145087407737936E+01
             -0.114094556606759E+01
             -0.183491544605342E+01
             -0.329590583137517E+00
              0.911972823444911E+00
             -0.291339506579780E-01
              0.141690589173558E+01
             -0.862135574125974E+00
              0.483348136511385E+00
             -0.547426856602251E+00
             -0.719569879706718E+00
              0.157307702458310E+01
              0.149860701972603E+00
              0.165703449784064E+01
              0.143959184297188E+00
              0.576366833180175E+00
             -0.427833340414054E+00
              0.164788301668984E+01
             -0.377778576909448E+00
             -0.348216900639893E-01
             -0.211470305885816E+01
             -0.216940737161560E+00
              0.190469686766717E+01
              0.180001527157105E+01
              0.644505851934430E+00
             -0.411572345261339E+00
              0.880674127320771E-01
             -0.586566874482648E+00
             -0.420033493863817E+00
              0.239483004591603E+01
              0.153184502318172E+00
             -0.752494472802132E+00
             -0.292750330943525E+01
             -0.126046900800563E+01
             -0.101006597998643E+01
             -0.171247522539766E+01
             -0.159918033475130E+01
             -0.194722601069706E+01
             -0.121526535954147E+01
             -0.804480037081234E+00
             -0.127879187232274E+01
              0.120299554382978E+01
             -0.541002809190122E+00
             -0.245123641111695E+01
              0.113639171980182E+01
             -0.885492282288186E+00
             -0.215841369627136E+01
              0.273783280795182E+01
             -0.672241299822709E+00
              0.440167701165745E+00
              0.106107491491949E+01
              0.270781858411361E+00
              0.670450913060495E+00
              0.171805415540813E-01
              0.259485490158657E-01
             -0.320653043416961E+00
             -0.196307127118574E+01
              0.293147364522290E+00
             -0.331896857190232E+01
              0.187653514582246E+01
             -0.109519264983977E+01
             -0.464361921056945E+00
             -0.534930237719040E+00
              0.536395018681885E+00
             -0.459704261055213E+00
              0.805611967463491E+00
             -0.156792503388374E+01
              0.101461689438590E+01
              0.111284575791372E+01
              0.318184530518152E+00
              0.225042773484987E+00
              0.577380140584192E+00
              0.242695194509389E+00
              0.848680972323782E+00
             -0.151526216149684E+00
             -0.190349682462261E+01
              0.266736498759675E+00
             -0.897077803692317E+00
             -0.732577537040449E-01
              0.144150199216876E+01
             -0.218494775147639E+01
              0.306888125766953E-01
              0.687541986027664E-01
              0.243080298704729E+00
              0.849415729645017E+00
             -0.354640035055339E+00
              0.228825180258166E+01
              0.108551680753907E+01
             -0.426039477456138E+00
             -0.290154853531758E+00
              0.147185358274112E+00
              0.214758703274566E+01
             -0.136421587137597E+01
             -0.276246775889106E+01
              0.772845130482712E+00
             -0.198454021309129E+00
             -0.388497245784446E+00
              0.512696596132143E+00
              0.208106048230750E+01
              0.116149730888531E+01
             -0.473145500303035E+00
             -0.144030710467769E+01
             -0.307702795666415E+00
              0.758121800641756E+00
             -0.461193523510653E+00
             -0.204051107565223E+01
             -0.206459584308369E+00
             -0.260698302917988E+01
             -0.137008012568492E+01
              0.230473562354185E+01
             -0.139319605378007E+01
             -0.191528977907773E+01
             -0.144883895142981E+01
             -0.105652894301189E+01
              0.888900324582404E+00
              0.228682204067924E+01
             -0.209126555371789E+00
              0.731165864303880E+00
             -0.514780341191605E+00
             -0.183382717037020E+01
              0.139829046823828E+01
             -0.129259543351639E+01
              0.726380695865105E+00
              0.822737910299319E+00
             -0.394494823020821E+00
              0.107889063505328E+01
              0.108649984136664E+01
              0.317746313609883E+01
             -0.324308787790805E+00
             -0.144200140051084E+01
             -0.180286216685595E+01
             -0.485617956725076E+00
             -0.104637518946283E+01
              0.259589877124443E+01
             -0.122132175318792E+01
              0.267539043241689E+00
              0.102084781115829E+00
             -0.563271772656326E+00
             -0.227501792393567E+01
             -0.178681847737042E+00
              0.270783456531769E+01
              0.527868939136279E+00
              0.216162084270623E+00
             -0.152293669656995E+01
             -0.147996912681562E+01
             -0.431103074147696E+00
              0.123901214315553E+01
             -0.707854826894962E+00
              0.276108771543562E+01
             -0.121617941006205E+01
              0.506505957871223E+00
             -0.439606126664634E+00
             -0.167759227193740E+01
              0.174556445573335E+00
             -0.151495674388762E+01
             -0.200147375925523E+01
              0.258646659140984E+00
              0.447339742792403E-01
              0.132432560520857E+01
              0.708220632365212E+00
             -0.936850938957778E+00
              0.625198613923672E+00
             -0.232610901109040E+01
             -0.132191583381540E+01
              0.253200324773368E+01
              0.158932670625250E+00
             -0.193017753921907E+00
             -0.713839043264696E+00
             -0.795495690894654E-02
             -0.289957760517177E+00
              0.242079135836111E+01
              0.109950883981489E+01
             -0.278911762881474E+00
             -0.621546781749949E-01
             -0.106160971057846E+01
             -0.404677739409507E+00
             -0.172514030795356E+01
              0.138558607354380E+01
              0.171696224727027E+00
              0.243251098383801E+00
              0.460898146098371E+00
             -0.336094954126608E+00
             -0.591565421536810E+00
              0.135576138510477E+00
             -0.298282647843215E+01
             -0.319914679274271E+00
             -0.220035621344845E+00
             -0.179489817853251E+00
              0.140082301261212E+01
              0.171930181987319E+01
              0.463561781601715E+00
             -0.253501379283422E+01
              0.174881924102172E+01
             -0.660634681189748E+00
             -0.101335282602112E+01
             -0.237798499431944E+01
             -0.796111465901434E+00
              0.163972069171864E+01
              0.866219547143334E+00
              0.430414237132631E+00
              0.932117603638702E+00
             -0.151188349675610E+01
             -0.129817044953008E+01
              0.167537773022956E+01
              0.113107088573650E+01
              0.131459401713647E+01
              0.131823976199884E+00
              0.267061471112546E+00
              0.143887294847749E+01
              0.270364118367357E+01
             -0.539010364504456E+00
              0.106934209439646E+01
             -0.658153987944553E+00
             -0.118830247298185E+01
             -0.922441579704700E+00
             -0.858131658771095E+00
             -0.374508910070789E+00
             -0.132032955951238E+01
             -0.567333075152689E+00
             -0.354717140574803E+01
              0.852052197257311E+00
              0.752300044348632E+00
             -0.693692547899132E-01
             -0.102909082145107E+01
             -0.541398976731281E+00
             -0.150409355627007E+01
              0.188233164039673E+00
              0.216815143839267E+01
             -0.500587751111638E+00
             -0.503545580112329E+00
              0.512005853947667E+00
             -0.134054389312570E+01
              0.236938027099664E+01
              0.453407838806881E+00
              0.226307195704328E+00
              0.144249785859603E+01
             -0.105842684750971E+00
              0.160306003424974E+01
              0.516267381373194E+00
             -0.104849467202449E+00
              0.371556391930473E+00
             -0.216050405884543E+00
              0.188352008945275E+01
              0.191340715933160E+00
              0.533245011716032E+00
             -0.226738945693857E+00
              0.283500314343339E+00
             -0.255882455740267E+01
             -0.995977714312897E+00
             -0.131755870961766E+01
              0.142189991414940E+01
             -0.942594744622759E+00
             -0.156947066550786E+01
              0.161734434842855E+01
             -0.393489224867619E+00
              0.115176344958741E+01
             -0.245597463019726E+01
              0.552560375951419E+00
              0.139200338313327E+00
              0.145433661793394E+00
             -0.333456030904440E+00
             -0.169500120123525E+00
              0.135421897576374E+01
              0.785037664603774E-01
             -0.139207287741378E+01
             -0.560020404434624E+00
              0.562823427920642E+00
             -0.315696874975202E+01
             -0.242261239314706E+01
              0.375637145208394E-01
              0.403733690198937E+00
             -0.132796707622357E+01
             -0.477554313528117E-02
              0.284425228511049E+01
              0.866467435734283E+00
             -0.147741803200429E+01
              0.217563994334478E+00
             -0.280657786220332E+00
              0.331091552052455E+00
             -0.937345034235857E+00
              0.579936965705646E+00
              0.650844431409190E+00
             -0.244629957582685E+00
              0.305252335013272E+01
             -0.148066238484335E+00
             -0.859733339952051E+00
              0.803079229967530E+00
              0.116507456941059E+01
             -0.910975162285760E+00
             -0.295821499949365E-01
              0.264750165357897E+01
             -0.534681311602760E-01
              0.141237850536268E+01
              0.447584617887069E+00
             -0.227623131003696E+00
             -0.448076028119193E+00
              0.135785421087758E+01
             -0.161015951414471E+01
             -0.756682185517352E-01
             -0.524462780446260E+00
             -0.112221943123709E+01
              0.299846602561247E+00
              0.631285162956095E+00
              0.457159900783388E-02
             -0.606760072215966E-01
             -0.110092254679022E+01
              0.451094627649360E+00
             -0.405429533868076E-01
             -0.623244872733590E+00
             -0.574260322279683E+00
              0.518375783565117E+00
             -0.308830154316020E-01
             -0.104467004435224E+01
             -0.289920972853991E+01
              0.152557357985266E+00
              0.473375632448198E+00
             -0.128470016788939E+01
             -0.658805309128574E+00
              0.222680507904891E+01
              0.299886255066759E+00
              0.116178528849824E+01
              0.264338401840964E+00
              0.106048187356742E+01
              0.632191913810871E-01
             -0.109402220890507E+01
             -0.240649600485600E+00
              0.161683857259603E+00
              0.817819177454771E+00
              0.209877608735009E+01
              0.133870972883225E+01
              0.659521361923296E-01
              0.286886060946905E+00
              0.163975450295292E+01
              0.755471752132699E+00
             -0.193870281804433E+01
             -0.753609897009303E+00
              0.343798845559268E+00
              0.270581564828769E+00
              0.701168036865876E+00
             -0.141759190859112E+01
              0.170581510366804E+00
              0.108832802030900E+01
              0.133924926800142E+01
             -0.116652809270537E+01
              0.215866671252112E-01
             -0.733466310693576E-01
             -0.562132754805157E+00
             -0.741141463704643E+00
             -0.354095859723893E+00
             -0.254343580623932E+00
              0.284620346644108E+00
              0.113653319998590E+01
             -0.884036181115760E+00
              0.220287438178612E+01
              0.934080772746150E+00
              0.694409725979150E+00
              0.984611509485847E+00
              0.727210043580497E+00
              0.899712875627079E+00
              0.151393688293234E+01
             -0.128565491620040E+01
              0.171012703662320E+01
             -0.306918328795362E+01
              0.867988173809946E+00
             -0.287983753807589E+01
              0.219964419646936E+01
              0.212192702798793E+01
             -0.237031489607476E+00
             -0.129997991553308E+01
             -0.115092864668808E+01
             -0.150083681204445E+01
             -0.176778941137121E+01
              0.147493015209384E+01
              0.117834480251464E+01
              0.667308277733795E+00
              0.757082750732616E+00
              0.116360207797082E+01
             -0.110133072282571E+01
             -0.407747379636492E+00
              0.146104962395226E+01
             -0.318539533033932E+00
              0.133780186623235E+01
              0.208449139841937E+01
             -0.719885801320583E-01
             -0.203685227978740E+01
              0.978087780006760E-01
              0.627186107299819E-01
             -0.285505846511430E+00
              0.958146772745883E-01
             -0.177862914685549E+01
             -0.305665578355818E+00
              0.343256671346043E+00
              0.332076239057315E+00
              0.134664722273494E+01
             -0.112446999991153E+01
              0.149464461850426E+01
             -0.105634227239256E+01
              0.703242594237430E+00
              0.117744183621066E+01
 
 BEEF-vdW xc energy contributions
           1 :   -19.5479464774145     
           2 :    16.4425628034112     
           3 :   -11.9263476223740     
           4 :    7.60949112219403     
           5 :   -4.23512979577558     
           6 :    1.93828348343165     
           7 :  -0.564118364832535     
           8 :  -0.156790813421082     
           9 :   0.501575161385130     
          10 :  -0.688086100568025     
          11 :   0.814861302806325     
          12 :  -0.875060614472645     
          13 :   0.832130062360658     
          14 :  -0.688526308104429     
          15 :   0.489997538369572     
          16 :  -0.292931839969665     
          17 :   0.136556059490886     
          18 :  -3.754083574304445E-002
          19 :  -1.166391865574212E-002
          20 :   3.285712905910643E-002
          21 :  -4.676666991193201E-002
          22 :   6.083228736711632E-002
          23 :  -7.317655708408921E-002
          24 :   7.868284329095587E-002
          25 :  -7.097253072127074E-002
          26 :   4.767773276776310E-002
          27 :  -1.747111518585598E-002
          28 :  -1.004465207694594E-002
          29 :   3.045359145412618E-002
          30 :  -4.199957415592337E-002
          31 :   -2.44521415308587     
          32 :   -1.55350728124310     

     Writing output data file ./pwscf.save/
 
     init_run     :     74.29s CPU     77.25s WALL (       1 calls)
     electrons    :    610.30s CPU    667.43s WALL (       1 calls)
     forces       :     33.21s CPU     35.84s WALL (       1 calls)

     Called by init_run:
     wfcinit      :      2.25s CPU      2.32s WALL (       1 calls)
     potinit      :     57.78s CPU     59.78s WALL (       1 calls)
     hinit0       :     12.19s CPU     12.35s WALL (       1 calls)

     Called by electrons:
     c_bands      :    119.17s CPU    120.38s WALL (      16 calls)
     sum_band     :     57.86s CPU     68.51s WALL (      16 calls)
     v_of_rho     :    323.30s CPU    354.73s WALL (      17 calls)
     newd         :     23.86s CPU     34.75s WALL (      17 calls)
     PAW_pot      :      2.20s CPU      2.20s WALL (      17 calls)
     mix_rho      :    133.86s CPU    139.26s WALL (      16 calls)
     vdW_kernel   :     33.46s CPU     33.46s WALL (       1 calls)

     Called by c_bands:
     init_us_2    :      1.84s CPU      1.86s WALL (      33 calls)
     regterg      :    115.64s CPU    116.85s WALL (      16 calls)

     Called by *egterg:
     rdiaghg      :      0.04s CPU      0.04s WALL (     150 calls)
     h_psi        :    101.21s CPU    101.24s WALL (     151 calls)
     s_psi        :      3.26s CPU      3.27s WALL (     151 calls)
     g_psi        :      0.37s CPU      0.37s WALL (     134 calls)

     Called by h_psi:
     h_psi:calbec :      2.42s CPU      2.42s WALL (     151 calls)
     vloc_psi     :     94.92s CPU     94.92s WALL (     151 calls)
     add_vuspsi   :      3.30s CPU      3.30s WALL (     151 calls)

     General routines
     calbec       :      2.90s CPU      2.91s WALL (     171 calls)
     fft          :    285.36s CPU    285.38s WALL (    2932 calls)
     ffts         :     58.34s CPU     58.35s WALL (     611 calls)
     fftw         :     89.71s CPU     89.71s WALL (     936 calls)
 
     Parallel routines
 
     PWSCF        :  20m59.35s CPU  23m 3.69s WALL

 
   This run was terminated on:  17:11:34  20Dec2022            

=------------------------------------------------------------------------------=
   JOB DONE.
=------------------------------------------------------------------------------=
