
     Program PWSCF v.6.7MaX starts on 20Dec2022 at 16:23:25 

     This program is part of the open-source Quantum ESPRESSO suite
     for quantum simulation of materials; please cite
         "P. Giannozzi et al., J. Phys.:Condens. Matter 21 395502 (2009);
         "P. Giannozzi et al., J. Phys.:Condens. Matter 29 465901 (2017);
          URL http://www.quantum-espresso.org", 
     in publications or presentations arising from this work. More details at
     http://www.quantum-espresso.org/quote

     Parallel version (MPI), running on     1 processors

     MPI processes distributed on     1 nodes
     Reading input from h2co-gas-ensemble.in
Warning: card &CELL ignored
Warning: card / ignored

     Current dimensions of program PWSCF are:
     Max number of different atomic species (ntypx) = 10
     Max number of k-points (npk) =  40000
     Max angular momentum in pseudopotentials (lmaxx) =  3
     file C.pbe-n-kjpaw_psl.1.0.0.UPF: wavefunction(s)  2S 2P renormalized
     file H.pbe-kjpaw_psl.1.0.0.UPF: wavefunction(s)  1S renormalized
     file O.pbe-nl-kjpaw_psl.1.0.0.UPF: wavefunction(s)  2S 2P renormalized

     **************************************************************************
     Initializing libbeef V0.1.2 with the BEEF-vdW functional.
     Citation: Wellendorff et al., PRB 85, 235149 (2012).
     **************************************************************************


     IMPORTANT: XC functional enforced from input :
     Exchange-correlation= BEEF-VDW
                           (   1   4  43  14   2   0   0)
     Any further DFT definition will be discarded
     Please, verify this is what you really want


     gamma-point specific algorithms are used

     Subspace diagonalization in iterative solution of the eigenvalue problem:
     a serial algorithm will be used

 
     G-vector sticks info
     --------------------
     sticks:   dense  smooth     PW     G-vecs:    dense   smooth      PW
     Sum       32679   32679   8159              4090477  4090477  511183
 


     bravais-lattice index     =            0
     lattice parameter (alat)  =      41.3009  a.u.
     unit-cell volume          =   65149.3002 (a.u.)^3
     number of atoms/cell      =            4
     number of atomic types    =            3
     number of electrons       =        12.00
     number of Kohn-Sham states=           10
     kinetic-energy cutoff     =      60.0000  Ry
     charge density cutoff     =     240.0000  Ry
     scf convergence threshold =      1.0E-06
     mixing beta               =       0.7000
     number of iterations used =            8  local-TF  mixing
     Exchange-correlation= BEEF-VDW
                           (   1   4  43  14   2   0   0)

     celldm(1)=  41.300902  celldm(2)=   0.000000  celldm(3)=   0.000000
     celldm(4)=   0.000000  celldm(5)=   0.000000  celldm(6)=   0.000000

     crystal axes: (cart. coord. in units of alat)
               a(1) = (   1.000000   0.000000   0.000000 )  
               a(2) = (   0.000000   1.002983   0.000000 )  
               a(3) = (   0.000000   0.000000   0.922014 )  

     reciprocal axes: (cart. coord. in units 2 pi/alat)
               b(1) = (  1.000000  0.000000  0.000000 )  
               b(2) = (  0.000000  0.997026  0.000000 )  
               b(3) = (  0.000000  0.000000  1.084582 )  


     PseudoPot. # 1 for C  read from file:
     /users/bkreitz1/quantum-espresso/potentials/C.pbe-n-kjpaw_psl.1.0.0.UPF
     MD5 check sum: a169b0ebad56f5ec0d79c4633f80bf22
     Pseudo is Projector augmented-wave + core cor, Zval =  4.0
     Generated using 'atomic' code by A. Dal Corso  v.6.7MaX
     Shape of augmentation charge: PSQ
     Using radial grid of 1073 points,  4 beta functions with: 
                l(1) =   0
                l(2) =   0
                l(3) =   1
                l(4) =   1
     Q(r) pseudized with 0 coefficients 


     PseudoPot. # 2 for H  read from file:
     /users/bkreitz1/quantum-espresso/potentials/H.pbe-kjpaw_psl.1.0.0.UPF
     MD5 check sum: ae98473e6dc62675f0d0baffdab24f65
     Pseudo is Projector augmented-wave, Zval =  1.0
     Generated using 'atomic' code by A. Dal Corso  v.6.7MaX
     Shape of augmentation charge: PSQ
     Using radial grid of  929 points,  2 beta functions with: 
                l(1) =   0
                l(2) =   0
     Q(r) pseudized with 0 coefficients 


     PseudoPot. # 3 for O  read from file:
     /users/bkreitz1/quantum-espresso/potentials/O.pbe-nl-kjpaw_psl.1.0.0.UPF
     MD5 check sum: eef08af8b58d9ec80f8fdb78829eb7cf
     Pseudo is Projector augmented-wave + core cor, Zval =  6.0
     Generated using 'atomic' code by A. Dal Corso  v.6.7MaX
     Shape of augmentation charge: PSQ
     Using radial grid of 1095 points,  4 beta functions with: 
                l(1) =   0
                l(2) =   0
                l(3) =   1
                l(4) =   1
     Q(r) pseudized with 0 coefficients 


     atomic species   valence    mass     pseudopotential
        C              4.00    12.01100     C ( 1.00)
        H              1.00     1.00800     H ( 1.00)
        O              6.00    15.99900     O ( 1.00)

     No symmetry found



   Cartesian axes

     site n.     atom                  positions (alat units)
         1           C   tau(   1) = (   0.4957749   0.4907936   0.4601435  )
         2           H   tau(   2) = (   0.4575472   0.4575779   0.4575503  )
         3           H   tau(   3) = (   0.5424401   0.4710498   0.4588232  )
         4           O   tau(   4) = (   0.4870344   0.5453397   0.4649100  )

     number of k points=     1  Gaussian smearing, width (Ry)=  0.0050
                       cart. coord. in units 2pi/alat
        k(    1) = (   0.0000000   0.0000000   0.0000000), wk =   2.0000000

     Dense  grid:  2045239 G-vectors     FFT dimensions: ( 216, 216, 192)

     Estimated max dynamical RAM per process >       3.12 GB

     Initial potential from superposition of free atoms

     starting charge   11.99994, renormalised to   12.00000

     negative rho (up, down):  1.527E-02 0.000E+00


     %%%%%%%%%%%%%%%%%%%%%%%%%%%%%%%%%%%%%%%%%%%%%%%%%%%%%%%%%%%%%%%%%%%%%%%%
     %                                                                      %
     % You are using vdW-DF, which was implemented by the Thonhauser group. %
     % Please cite the following two papers that made this development      %
     % possible and the two reviews that describe the various versions:     %
     %                                                                      %
     %   T. Thonhauser et al., PRL 115, 136402 (2015).                      %
     %   T. Thonhauser et al., PRB 76, 125112 (2007).                       %
     %   K. Berland et al., Rep. Prog. Phys. 78, 066501 (2015).             %
     %   D.C. Langreth et al., J. Phys.: Condens. Matter 21, 084203 (2009). %
     %                                                                      %
     %                                                                      %
     % If you are calculating the stress with vdW-DF, please also cite:     %
     %                                                                      %
     %   R. Sabatini et al., J. Phys.: Condens. Matter 24, 424209 (2012).   %
     %                                                                      %
     %%%%%%%%%%%%%%%%%%%%%%%%%%%%%%%%%%%%%%%%%%%%%%%%%%%%%%%%%%%%%%%%%%%%%%%%


     Starting wfcs are   10 randomized atomic wfcs
     Checking if some PAW data can be deallocated... 

     total cpu time spent up to now is       75.8 secs

     Self-consistent Calculation

     iteration #  1     ecut=    60.00 Ry     beta= 0.70
     Davidson diagonalization with overlap
     ethr =  1.00E-02,  avg # of iterations =  5.0

     negative rho (up, down):  1.195E-02 0.000E+00

     total cpu time spent up to now is      117.2 secs

     total energy              =     -63.86092734 Ry
     estimated scf accuracy    <       0.47244676 Ry

     iteration #  2     ecut=    60.00 Ry     beta= 0.70
     Davidson diagonalization with overlap
     ethr =  3.94E-03,  avg # of iterations =  2.0

     negative rho (up, down):  1.064E-02 0.000E+00

     total cpu time spent up to now is      154.1 secs

     total energy              =     -63.87089849 Ry
     estimated scf accuracy    <       0.09270401 Ry

     iteration #  3     ecut=    60.00 Ry     beta= 0.70
     Davidson diagonalization with overlap
     ethr =  7.73E-04,  avg # of iterations =  2.0

     negative rho (up, down):  1.318E-02 0.000E+00

     total cpu time spent up to now is      191.3 secs

     total energy              =     -63.86661628 Ry
     estimated scf accuracy    <       0.02684252 Ry

     iteration #  4     ecut=    60.00 Ry     beta= 0.70
     Davidson diagonalization with overlap
     ethr =  2.24E-04,  avg # of iterations =  5.0

     negative rho (up, down):  2.871E-02 0.000E+00

     total cpu time spent up to now is      230.5 secs

     total energy              =     -63.86717222 Ry
     estimated scf accuracy    <       0.00725114 Ry

     iteration #  5     ecut=    60.00 Ry     beta= 0.70
     Davidson diagonalization with overlap
     ethr =  6.04E-05,  avg # of iterations =  6.0

     negative rho (up, down):  4.093E-02 0.000E+00

     total cpu time spent up to now is      270.1 secs

     total energy              =     -63.86687387 Ry
     estimated scf accuracy    <       0.00324979 Ry

     iteration #  6     ecut=    60.00 Ry     beta= 0.70
     Davidson diagonalization with overlap
     ethr =  2.71E-05,  avg # of iterations =  6.0

     negative rho (up, down):  7.165E-02 0.000E+00

     total cpu time spent up to now is      309.1 secs

     total energy              =     -63.86759000 Ry
     estimated scf accuracy    <       0.00147022 Ry

     iteration #  7     ecut=    60.00 Ry     beta= 0.70
     Davidson diagonalization with overlap
     ethr =  1.23E-05,  avg # of iterations =  6.0

     negative rho (up, down):  5.701E-02 0.000E+00

     total cpu time spent up to now is      348.8 secs

     total energy              =     -63.86731489 Ry
     estimated scf accuracy    <       0.00046600 Ry

     iteration #  8     ecut=    60.00 Ry     beta= 0.70
     Davidson diagonalization with overlap
     c_bands:  1 eigenvalues not converged
     ethr =  3.88E-06,  avg # of iterations = 20.0

     negative rho (up, down):  5.158E-02 0.000E+00

     total cpu time spent up to now is      391.1 secs

     total energy              =     -63.86713545 Ry
     estimated scf accuracy    <       0.00024369 Ry

     iteration #  9     ecut=    60.00 Ry     beta= 0.70
     Davidson diagonalization with overlap
     c_bands:  1 eigenvalues not converged
     ethr =  2.03E-06,  avg # of iterations = 20.0

     negative rho (up, down):  3.552E-02 0.000E+00

     total cpu time spent up to now is      433.6 secs

     total energy              =     -63.86683352 Ry
     estimated scf accuracy    <       0.00012773 Ry

     iteration # 10     ecut=    60.00 Ry     beta= 0.70
     Davidson diagonalization with overlap
     ethr =  1.06E-06,  avg # of iterations = 15.0

     negative rho (up, down):  2.963E-02 0.000E+00

     total cpu time spent up to now is      475.2 secs

     total energy              =     -63.86684700 Ry
     estimated scf accuracy    <       0.00004030 Ry

     iteration # 11     ecut=    60.00 Ry     beta= 0.70
     Davidson diagonalization with overlap
     ethr =  3.36E-07,  avg # of iterations =  5.0

     negative rho (up, down):  2.498E-02 0.000E+00

     total cpu time spent up to now is      512.8 secs

     total energy              =     -63.86685762 Ry
     estimated scf accuracy    <       0.00002979 Ry

     iteration # 12     ecut=    60.00 Ry     beta= 0.70
     Davidson diagonalization with overlap
     ethr =  2.48E-07,  avg # of iterations =  5.0

     negative rho (up, down):  2.240E-02 0.000E+00

     total cpu time spent up to now is      550.9 secs

     total energy              =     -63.86687449 Ry
     estimated scf accuracy    <       0.00000644 Ry

     iteration # 13     ecut=    60.00 Ry     beta= 0.70
     Davidson diagonalization with overlap
     ethr =  5.37E-08,  avg # of iterations =  6.0

     negative rho (up, down):  2.050E-02 0.000E+00

     total cpu time spent up to now is      588.4 secs

     total energy              =     -63.86687809 Ry
     estimated scf accuracy    <       0.00000454 Ry

     iteration # 14     ecut=    60.00 Ry     beta= 0.70
     Davidson diagonalization with overlap
     ethr =  3.79E-08,  avg # of iterations =  2.0

     negative rho (up, down):  1.972E-02 0.000E+00

     total cpu time spent up to now is      617.3 secs

     End of self-consistent calculation

          k = 0.0000 0.0000 0.0000 (255592 PWs)   bands (ev):

   -27.0732 -16.1679 -12.4823 -11.2495 -10.2478  -6.6238  -2.9434  -0.9097
    -0.2859  -0.2056

     the Fermi energy is    -3.4620 ev

!    total energy              =     -63.86688030 Ry

     total all-electron energy =      -230.477864 Ry
     estimated scf accuracy    <       0.00000061 Ry
     smearing contrib. (-TS)   =      -0.00000000 Ry
     internal energy E=F+TS    =     -63.86688030 Ry

     The total energy is F=E-TS. E is the sum of the following terms:
     one-electron contribution =    -121.27414514 Ry
     hartree contribution      =      62.73333470 Ry
     xc contribution           =     -13.94540362 Ry
     ewald contribution        =      25.31120921 Ry
     one-center paw contrib.   =     -16.69187546 Ry

     convergence has been achieved in  14 iterations

     negative rho (up, down):  1.972E-02 0.000E+00

     Forces acting on atoms (cartesian axes, Ry/au):

     atom    1 type  1   force =    -0.00091588    0.00174385    0.00467038
     atom    2 type  2   force =     0.00012251    0.00094666   -0.00141887
     atom    3 type  2   force =     0.00008862    0.00078592   -0.00144039
     atom    4 type  3   force =     0.00070476   -0.00347642   -0.00181112

     Total force =     0.006869     Total SCF correction =     0.000399

     negative rho (up, down):  1.972E-02 0.000E+00

     negative rho (up, down):  1.972E-02 0.000E+00

     negative rho (up, down):  1.972E-02 0.000E+00

     negative rho (up, down):  1.972E-02 0.000E+00

     negative rho (up, down):  1.972E-02 0.000E+00

     negative rho (up, down):  1.972E-02 0.000E+00

     negative rho (up, down):  1.972E-02 0.000E+00

     negative rho (up, down):  1.972E-02 0.000E+00

     negative rho (up, down):  1.972E-02 0.000E+00

     negative rho (up, down):  1.972E-02 0.000E+00

     negative rho (up, down):  1.972E-02 0.000E+00

     negative rho (up, down):  1.972E-02 0.000E+00

     negative rho (up, down):  1.972E-02 0.000E+00

     negative rho (up, down):  1.972E-02 0.000E+00

     negative rho (up, down):  1.972E-02 0.000E+00

     negative rho (up, down):  1.972E-02 0.000E+00

     negative rho (up, down):  1.972E-02 0.000E+00

     negative rho (up, down):  1.972E-02 0.000E+00

     negative rho (up, down):  1.972E-02 0.000E+00

     negative rho (up, down):  1.972E-02 0.000E+00

     negative rho (up, down):  1.972E-02 0.000E+00

     negative rho (up, down):  1.972E-02 0.000E+00

     negative rho (up, down):  1.972E-02 0.000E+00

     negative rho (up, down):  1.972E-02 0.000E+00

     negative rho (up, down):  1.972E-02 0.000E+00

     negative rho (up, down):  1.972E-02 0.000E+00

     negative rho (up, down):  1.972E-02 0.000E+00

     negative rho (up, down):  1.972E-02 0.000E+00

     negative rho (up, down):  1.972E-02 0.000E+00

     negative rho (up, down):  1.972E-02 0.000E+00

     negative rho (up, down):  1.972E-02 0.000E+00

     negative rho (up, down):  1.972E-02 0.000E+00

     negative rho (up, down):  1.972E-02 0.000E+00

     negative rho (up, down):  1.972E-02 0.000E+00
 BEEFens 2000 ensemble energies
             -0.104033310759112E+01
             -0.361501414015639E-01
             -0.216386434400755E+00
              0.718095787396784E+00
             -0.341463807590437E+00
             -0.258629728874158E+00
             -0.759646475060533E+00
             -0.157784748331976E+01
             -0.578139021040053E+00
             -0.626446326122265E+00
             -0.581623316396392E+00
              0.830065618194153E-01
              0.496686313521559E-01
             -0.593338212672485E-01
              0.635475673908985E-01
              0.762467564477022E+00
             -0.332363199471577E+00
             -0.180742041271809E+00
              0.379314615673508E+00
             -0.179749911912877E+01
              0.915134685407753E+00
             -0.318296661903357E+00
             -0.102806251057722E+00
             -0.150836140676646E+00
              0.292177114508245E-01
             -0.980431712829701E-01
              0.143791226816440E+01
             -0.346686526993779E+00
             -0.135379901246772E+00
             -0.905467865444577E+00
              0.114228976525453E+01
             -0.913528424361250E-01
             -0.679084755469063E+00
              0.306530853084151E+00
             -0.479548643554946E-01
              0.452416749693644E+00
              0.199713091721323E-01
              0.650202381715514E-02
              0.587357504571092E+00
             -0.163805075454793E+01
              0.889816400020690E+00
              0.186583174551564E+00
             -0.182102947773740E+00
             -0.492197410259535E+00
              0.193997564720729E+00
             -0.276353921549713E+00
              0.818217188870339E+00
              0.578678288653466E+00
             -0.325602280236337E+00
             -0.521238959449731E+00
             -0.491898092283980E+00
             -0.597914011034976E+00
              0.339818500830463E+00
             -0.857131565498793E+00
              0.256461036861575E+00
              0.987131575628401E+00
              0.120490899046717E+01
              0.522142679438394E+00
              0.280543262568075E+00
              0.511719563750558E+00
              0.147426602672980E+01
              0.292324870668598E+00
             -0.899224125332268E+00
             -0.163663481573165E+00
             -0.475043467942016E+00
              0.101793832013768E+01
             -0.119312038247616E+01
             -0.960950181407222E+00
             -0.528786806112677E+00
             -0.282269171159049E+00
             -0.653253000921215E+00
              0.447991110794567E+00
              0.220298746051055E+00
              0.255461360427579E+00
             -0.620534573064255E+00
             -0.577095515067167E+00
             -0.942866707090660E+00
              0.531223069871256E+00
             -0.549727440586472E+00
              0.499927328735073E+00
             -0.121878421870836E+00
             -0.470426995580112E+00
             -0.842867779293203E+00
             -0.249756371608637E+00
             -0.275083556143001E+00
             -0.253794648496543E+00
              0.627221480685428E+00
              0.124253432804064E+01
             -0.734777670936485E+00
             -0.130021291639794E+01
             -0.300268799988158E+00
              0.178342179543847E+01
             -0.898173965816843E+00
              0.501962054991996E+00
             -0.182390803550993E+00
             -0.978558298973390E+00
              0.452851208439375E+00
              0.508213210315896E+00
             -0.234854443546660E+00
              0.469094986500806E+00
             -0.417233306430523E+00
             -0.973667688401862E+00
              0.161776031193370E+01
              0.740805279497758E+00
              0.359140837834635E+00
              0.206363350478327E+00
              0.360498049015210E+00
              0.132572448724140E+01
             -0.431472164708999E+00
              0.397939749330325E-01
             -0.225928209010337E+01
              0.304018068190188E+00
             -0.108331174071794E+01
              0.199949922518464E+00
              0.347795278645951E+00
             -0.591862474942076E+00
             -0.821568912236811E+00
              0.549124475360134E-01
             -0.496052879011335E+00
              0.709526123621283E+00
             -0.730788274033966E+00
             -0.128345399575299E+00
             -0.625592846639430E+00
             -0.547495383983421E-01
              0.612871477327808E-01
              0.347849837078308E+00
             -0.408395839426667E-02
             -0.107449975985204E+00
              0.106692859727950E+01
              0.149115220413248E+01
              0.799044536202159E+00
              0.108316604967235E+01
             -0.221312755698889E+00
              0.141414194712292E+00
              0.839911928295628E+00
              0.596074804487716E-01
             -0.123278199120371E+01
             -0.701981687642681E+00
             -0.788968066796294E+00
             -0.479540167872788E+00
              0.409994343945957E+00
             -0.197588431791542E+01
             -0.198020099599822E+00
              0.748009128961567E+00
             -0.660824535702539E+00
             -0.484616060444477E+00
              0.919211198900831E+00
              0.801784716588868E+00
             -0.459334686297297E+00
              0.506227913486709E+00
             -0.399646276782685E+00
              0.616323498389158E+00
              0.124442237188064E+00
              0.184835492613897E+00
             -0.133744825789539E+01
             -0.783603308837898E+00
             -0.139844136032513E+00
             -0.459460400787748E-01
             -0.685306265756811E+00
              0.179856104748326E+01
             -0.194904067191798E+00
             -0.438692875330965E+00
              0.643634686227607E+00
             -0.732241174958163E+00
             -0.602812739953797E+00
              0.523763767799462E+00
              0.190179309638146E+00
              0.163387524848366E+00
              0.247456745703742E+00
             -0.173050230671226E+00
              0.170587446614872E+00
              0.953193422679182E+00
             -0.448079496059697E+00
              0.355796898535007E+00
              0.144013663416698E+01
              0.506331165975112E+00
             -0.673103024959083E-01
             -0.324987145951965E+00
              0.251354657040042E+01
             -0.395239494185188E+00
              0.631571264662077E+00
              0.489326397195222E+00
              0.467133191863066E+00
              0.151563332927780E+01
              0.751637190940305E+00
             -0.891208762952049E-01
              0.396715215077522E+00
              0.838000103806882E+00
              0.626525600964850E+00
             -0.986144839751814E+00
              0.153176788226084E+01
             -0.139436346748613E+01
             -0.189446281023156E+00
              0.918729116794621E+00
              0.252190688170329E+00
              0.877664553495077E-01
              0.457699944649790E+00
              0.259376002764982E+00
              0.527776728543532E+00
             -0.101791797650477E+01
              0.623874533262168E-01
             -0.377741656970287E+00
             -0.104271920993764E+00
             -0.432439640358044E-01
             -0.201874407527565E+00
             -0.102732464376318E+00
              0.134874546287400E+01
             -0.813785748489435E-01
             -0.472821701679450E+00
             -0.234732180332383E-01
              0.227810463461856E+00
             -0.103893793173224E+01
             -0.875269135116923E+00
             -0.550849871263958E+00
             -0.101862203601974E+01
             -0.307463740669350E+00
             -0.653758618647903E+00
              0.299495187972494E+00
              0.243417124417245E-01
             -0.205882265578408E+00
             -0.132307968202239E+00
              0.843795358026673E-01
             -0.247501810211244E+00
              0.104886533092463E+01
             -0.141082856537460E+01
             -0.212512375268704E+00
             -0.230781420743825E+00
              0.255485673800847E+00
              0.333894273786781E+00
             -0.831286919829383E+00
             -0.205553455458635E+00
              0.722851982479160E+00
             -0.328611364047424E+00
              0.210778369240095E+00
              0.558595131839573E+00
             -0.976519698983136E-02
              0.187448870421469E+01
             -0.197823031308994E+00
             -0.570440991937412E+00
              0.867511242304531E-02
             -0.452189123718275E+00
              0.875875049456992E+00
             -0.769667347966531E+00
              0.221668494728235E+00
              0.822263375169246E+00
             -0.213597690692808E+00
              0.191167667863971E+01
              0.206667524146916E+01
             -0.115038273897468E+01
              0.927709243407175E+00
              0.369068459415761E+00
             -0.905498479034029E+00
              0.298155351804854E+00
              0.676569464988809E+00
              0.746300879194119E+00
              0.812843242334824E-01
              0.281764276514782E+00
              0.120177006923492E+01
             -0.373380719810983E+00
              0.150620557926898E+00
              0.110642185125164E+01
             -0.591136031414972E+00
             -0.376600923493507E+00
              0.952193666232676E+00
              0.497530388515890E+00
              0.125757837637906E+01
              0.542237586681022E+00
              0.208163903887403E+00
              0.402599543755569E+00
              0.688925486845237E+00
             -0.830846659726313E+00
              0.109762125752636E+00
              0.421126316995461E+00
              0.168893642061526E+00
              0.388567333579801E+00
             -0.100196015943241E+01
              0.531257623871046E+00
             -0.707051498144903E+00
             -0.497458188865006E+00
              0.300062374067886E+00
             -0.152740949610602E+00
              0.962294577345169E+00
             -0.255605292312351E+00
              0.467862160549186E+00
              0.488410332866186E+00
              0.125744504264866E+01
              0.852370106395014E+00
              0.831070392464534E+00
             -0.698717138158873E-01
             -0.175292009658608E+00
             -0.478826451028604E+00
              0.132204445650511E+01
              0.134327833618328E+01
              0.630261483966075E+00
             -0.453582545538209E+00
              0.805204723685466E+00
             -0.160591545414821E-01
              0.292735133726185E+00
              0.112134113045157E+01
             -0.408500939084608E-01
             -0.167433541668982E+00
             -0.358700301135510E+00
             -0.975320768248313E+00
              0.156554830159617E+01
              0.808628760768341E+00
             -0.103892389355723E+01
             -0.344469755765766E+00
              0.413005664969452E+00
             -0.179258726355794E+00
              0.106270515332421E+01
              0.254020113318836E+00
              0.132114312558495E+01
              0.477790136314036E+00
             -0.395452576214533E+00
              0.307758495378623E+00
             -0.112712775091561E+00
             -0.425407948778822E+00
              0.281431285748805E+00
              0.276385931078183E+00
              0.145166630131706E+01
              0.124133037014968E+01
              0.921348915695384E+00
              0.110976556553329E+01
              0.107060656190843E+00
             -0.420453688836965E+00
              0.216780308386017E+00
             -0.546186627761745E+00
             -0.906110723266008E+00
             -0.927309802759709E+00
             -0.515128192901507E+00
             -0.176220117405177E+01
             -0.591292393966308E+00
             -0.140121069021694E+01
              0.324842309170919E+00
             -0.735179635667214E+00
              0.813551934302794E+00
             -0.158662129845753E+01
             -0.483859654200717E+00
              0.657012035088450E+00
              0.357670571830978E+00
             -0.145964559095640E+01
              0.883325422457297E+00
             -0.456963307230351E+00
              0.898584762654788E+00
             -0.462729721543819E+00
             -0.127131172685133E+01
              0.290941607518978E+00
             -0.106686742600825E+01
             -0.779875629159577E-01
             -0.142741650736807E-01
              0.685523429352479E+00
              0.204186021273370E+01
             -0.707508821730039E+00
             -0.613849151615198E+00
             -0.102169268959802E+00
             -0.136654631972900E+00
             -0.130165346719132E+01
             -0.928490031032816E+00
              0.822301407443662E+00
             -0.307482567492011E+00
              0.347448996959923E+00
             -0.803314815892752E+00
             -0.249878957144033E+00
             -0.680411984285616E+00
              0.787891114317582E+00
              0.227525714912435E+00
             -0.397764600558656E+00
             -0.276628539034877E+00
              0.209612978685495E+00
             -0.129469228769870E+00
              0.654346423938888E+00
             -0.436183036442571E+00
              0.158540473527886E+00
              0.539613675954973E+00
              0.220437145405235E+00
             -0.369906945113028E+00
              0.252633756762426E+01
              0.949329522147599E+00
              0.155728392409993E+00
              0.110533084535277E+00
             -0.980641707975633E+00
              0.533237968223770E+00
             -0.126183664195393E+01
             -0.547695754619960E+00
             -0.971318747073158E+00
             -0.290681045205043E+00
              0.952192792462927E+00
             -0.940945179780379E+00
              0.410599417721918E+00
             -0.612278094564971E-01
              0.289335601494667E-01
             -0.519573603289619E+00
             -0.676295927402524E+00
             -0.892428797075251E-01
             -0.567589761187342E+00
             -0.373585122512260E+00
             -0.641187751413295E+00
             -0.909230755668499E-01
             -0.519806435869379E+00
             -0.794390208231134E+00
              0.361372951395733E+00
             -0.213821997200219E+00
              0.376949709423489E+00
              0.145998893093432E+00
             -0.121916997721865E+01
             -0.836900062583277E+00
             -0.791883980264741E+00
              0.534304640897751E+00
             -0.956931646822743E-01
             -0.101365973323268E+01
              0.915069606445011E+00
             -0.692375363637932E+00
              0.939394610484909E+00
             -0.495753735692547E+00
             -0.800921169475447E+00
              0.420950177434026E+00
             -0.118190452546730E+01
             -0.526729820925735E+00
              0.970335707875979E+00
              0.329265680395375E+00
             -0.681873647886373E+00
              0.901376932217542E+00
             -0.259478860808509E+00
             -0.592567720604116E+00
             -0.492477018934079E+00
             -0.849160679438246E+00
              0.403319845257804E+00
             -0.141848561799987E+01
             -0.126158914601169E+01
             -0.116880773773230E+00
             -0.469795177219231E+00
             -0.976694999733002E+00
              0.124024404607484E+01
              0.223470927881668E+01
             -0.373007110717496E+00
             -0.527013827382792E-01
             -0.995601833782022E+00
              0.107495499518919E+01
              0.350141041407396E+00
             -0.317849565746208E+00
             -0.597324422333064E+00
              0.237303834501439E+00
             -0.981779014316460E+00
             -0.183045844377448E+00
             -0.141773567896933E+01
              0.542873041008653E+00
              0.201981625236815E+00
             -0.831311651566828E-01
             -0.172914624809361E+00
             -0.657563990065903E+00
             -0.203857021094485E+00
              0.220772898408858E+01
             -0.256962239095252E+00
             -0.774647977785164E+00
             -0.111922689453019E+01
              0.221847543065954E+00
             -0.609862371424013E+00
              0.147335125460344E+00
              0.536635752274833E+00
              0.768051512727306E-01
              0.576283415475975E+00
              0.285797740178946E+00
              0.961260657651039E+00
              0.422279963884401E+00
             -0.583391948383972E+00
              0.848249041843059E+00
              0.565260084186974E+00
              0.206808537928032E+00
              0.612200754086744E+00
             -0.487844937732779E+00
              0.116750912024446E+01
              0.405215903656957E+00
             -0.559275277416344E+00
             -0.929090400214877E-01
             -0.265210436051591E+00
              0.267818541489696E+00
             -0.431632128123706E+00
             -0.170855074686066E+00
             -0.203708625727058E+00
              0.132484838303909E+01
              0.944674286989577E+00
             -0.107447951353877E+01
             -0.116974170016951E+00
             -0.832026392955507E+00
             -0.228677774967103E+00
             -0.347132609201334E+00
              0.174084744149480E+00
             -0.607784068321447E-01
             -0.454347247185670E+00
              0.257315076121634E+00
             -0.149749708412259E+00
             -0.131312780433829E+00
              0.142296998334003E+01
              0.256595404200883E+00
             -0.134306498304766E+01
             -0.641791229397025E+00
              0.154248967546804E+01
              0.380230600644061E+00
             -0.135888527043473E+00
              0.178677378347800E+01
             -0.293904241189203E+00
             -0.131048805066149E+00
             -0.185642729893337E+00
              0.252618256936914E+00
              0.523164261012856E+00
              0.475026025567897E-01
              0.464577526603525E+00
             -0.195740947552048E+00
             -0.625800281284856E+00
             -0.633893761923542E+00
             -0.792698434405521E+00
              0.678137586695920E+00
              0.243793583080112E+00
              0.615562667448832E+00
              0.260673333938688E+00
              0.146408673070627E+01
              0.322873417495594E+00
             -0.125293861290966E+01
             -0.537793720847693E+00
              0.694026417004814E-01
             -0.459638085471457E+00
              0.103261081475890E+01
             -0.254349557344010E+00
              0.283276399999588E+00
              0.889843523487174E+00
             -0.131159962641071E+01
              0.241242634184159E+01
              0.315189878902777E+00
              0.394626744228486E+00
              0.612840820116728E+00
              0.658516304075736E-01
             -0.450569902281659E-01
              0.538379590812038E+00
             -0.561496123476048E+00
              0.139706569932545E+01
              0.121654938185829E+01
             -0.627006493671853E+00
              0.279846765596305E+00
              0.117546697131603E+01
             -0.359392537278304E+00
              0.323948993388268E+00
              0.563256615546459E+00
              0.692869127398983E+00
             -0.121525964146841E+01
             -0.109219039075329E+00
             -0.456467195835175E+00
             -0.103343350938727E+00
             -0.106112394559077E+00
              0.840236433464909E-01
             -0.237961449072386E+00
             -0.475693357403987E+00
              0.242727109933469E+00
              0.115613154659170E+00
              0.869626765082602E+00
             -0.742430345900457E+00
              0.712310203519388E+00
              0.817627013660782E+00
             -0.178340174153861E+00
              0.124604873097515E+01
             -0.109730292920686E+01
             -0.168808320912692E+01
             -0.113886601948474E+00
             -0.106174128250599E+00
              0.145503936542877E-01
              0.125627428417809E+01
             -0.386224277696607E-01
              0.684453128628139E+00
              0.945444881539260E+00
              0.641819643900273E+00
             -0.881934092223311E-01
              0.995691142594206E+00
             -0.272821064889654E+00
             -0.621030036200532E+00
             -0.622579579977332E+00
              0.147419197727882E+00
              0.601744180387447E+00
             -0.600854985589092E-01
              0.575452914563081E+00
              0.191855201330648E-02
              0.925928035692333E+00
              0.287179806935051E+00
              0.124992177199848E+00
             -0.327602568250818E-02
              0.489596341063861E+00
              0.666431369910550E+00
              0.263260210870161E+00
             -0.534646105277852E-01
             -0.878573046474832E+00
              0.485341816178498E+00
              0.337630252936130E+00
              0.561838178356626E+00
              0.499367815140924E+00
              0.588304160199034E+00
             -0.144041652463335E+00
              0.529347842026692E+00
             -0.473927576934502E+00
             -0.325050166029452E-01
             -0.872785663650969E+00
             -0.571140615947709E+00
              0.705187693834135E+00
             -0.144723538616835E+01
              0.411554038422296E+00
              0.234333650080849E+00
              0.140269060032078E+01
             -0.260369388177671E+00
              0.525681244379895E+00
             -0.195699703020823E+00
             -0.801408352637748E+00
             -0.110938756130670E+01
             -0.224019956005949E+00
             -0.148223067384309E+01
              0.165243875575682E+00
             -0.348155267508144E+00
              0.526039153617939E+00
              0.377367714866145E+00
             -0.450902643656526E+00
             -0.472011384896593E+00
              0.699871740874388E+00
             -0.915447858975984E+00
             -0.214312226733789E+00
             -0.269217164104379E+00
              0.417422980605995E+00
              0.392242683132569E-01
              0.689785239701770E-01
             -0.260440550603338E+00
              0.880585230898149E+00
             -0.927894776065584E+00
              0.126811351973720E+00
              0.972706494269902E+00
             -0.577444723113516E+00
              0.518422751822625E-01
              0.975904994312771E-03
             -0.108715580045426E+01
             -0.666556694878021E+00
             -0.474889174849157E-01
              0.495438828728447E+00
              0.550361960035707E+00
              0.775323710691627E-01
             -0.179309375375967E+00
              0.295665940104752E+00
             -0.680296869338552E+00
             -0.623901721839353E-01
             -0.858634943085148E+00
             -0.426682601374705E+00
              0.809579354732860E+00
             -0.499712336134857E+00
              0.112078185268515E+01
             -0.364157298041230E+00
              0.560994837405063E+00
              0.416864869612252E+00
             -0.975152807647468E+00
             -0.436411700864710E+00
              0.149124265473217E+00
             -0.658194875588088E+00
             -0.673638250645285E+00
             -0.143740246698125E+01
             -0.916670803486606E+00
             -0.810923858411090E+00
             -0.734288046826534E+00
              0.116574954755237E-01
              0.375054679810047E+00
              0.153299614457346E+00
              0.423308045285847E+00
             -0.958654162057879E+00
              0.204259565284841E+00
              0.432429226954975E+00
             -0.112499087441684E+01
             -0.948237218092593E+00
             -0.628759416563252E+00
             -0.505837008818905E+00
              0.252159883954271E+00
             -0.365246689740655E-01
             -0.704824074635839E+00
              0.489624193315488E+00
             -0.358700947198987E+00
              0.858618679721511E+00
             -0.143060903916885E+01
              0.101508948200860E+01
             -0.151787943217099E+00
             -0.711224496886364E+00
             -0.458622150339763E+00
             -0.160966804799962E-01
              0.783839742620351E+00
             -0.114582397395253E+01
             -0.214765510782829E+00
             -0.271368884273208E+00
              0.694560679029997E+00
              0.130576815470293E+01
             -0.162283230544741E+01
              0.150643490390961E+01
              0.657620884709377E+00
             -0.124536649236696E+01
             -0.530664619618690E+00
              0.127731104276747E+01
              0.938958134808281E+00
             -0.328204201370523E+00
             -0.115640834698919E+00
              0.281542806520910E+00
              0.124759965471851E+01
             -0.955385279774417E+00
              0.230404517192377E+00
             -0.114972739921623E+00
              0.459336461163177E+00
             -0.115354172535552E+01
             -0.558665081443701E-01
             -0.462674186457515E+00
              0.787305306113775E+00
              0.636269598984290E+00
             -0.144307152442692E+01
             -0.778934243633454E+00
             -0.348926584436926E+00
             -0.686109731719110E+00
             -0.215093757772176E+00
             -0.320621853430384E+00
              0.743902875196126E+00
              0.715685282756100E+00
             -0.527031857120770E-01
             -0.706585390597873E+00
             -0.139239815529888E+01
              0.811300799088682E+00
             -0.767757720821944E+00
             -0.584448031207256E+00
              0.121599093072018E+00
             -0.588771924703188E+00
             -0.666348654919856E+00
             -0.494939442777572E+00
             -0.803795685024948E+00
             -0.395071752991666E+00
             -0.811372602658122E+00
              0.916486031864473E+00
              0.988447541875207E+00
             -0.156038895320730E+00
             -0.352587152683718E+00
              0.382981830411602E-01
              0.682508197522997E+00
             -0.140605310714839E+01
             -0.385430539821032E+00
              0.830670913436485E+00
              0.113371933254146E+01
             -0.193129343237693E+00
              0.181695750028117E+00
              0.851296931696861E+00
              0.248046070394484E+00
             -0.377955958549325E-02
             -0.630547287195785E+00
              0.250417606884927E+00
             -0.539898635419089E+00
             -0.171872820108720E+00
             -0.337273840360984E+00
             -0.246232339841119E+00
              0.370311803989734E+00
              0.129885835762816E+01
             -0.103058861685901E+00
              0.350112571779979E-01
             -0.149375768996730E+01
             -0.293880316333951E+00
             -0.594690064158302E+00
              0.181851677361404E-01
             -0.740567977759250E+00
              0.143084694829721E+01
              0.142151256569461E+01
              0.307157122933689E+00
             -0.352326664399029E+00
              0.279548757859283E+00
              0.363105475369979E+00
             -0.750829693298398E+00
             -0.134789658543394E+00
              0.287967098623723E+00
              0.208246396621776E+00
              0.836154085019927E+00
              0.663976537076826E+00
             -0.348298809822665E+00
              0.385126756512897E+00
             -0.158333677762022E+01
             -0.515041858315710E-01
              0.146505986291331E+01
              0.291297682171644E+00
             -0.242789562005061E-01
              0.447458472432278E+00
             -0.382183337563740E+00
              0.145679846681130E+01
             -0.304253124248761E+00
              0.129351622575453E+01
              0.617543453758530E+00
             -0.719568996961589E+00
              0.537732159428428E+00
             -0.463016572638516E+00
             -0.109880075329536E+01
             -0.126686363133075E+00
             -0.892335867617924E+00
             -0.862981149342474E+00
             -0.284987186599555E-01
              0.584829011197247E+00
             -0.197480540868354E+00
             -0.527245593958824E+00
              0.116732198813184E+00
             -0.109097785144881E+01
             -0.691971179118830E-01
             -0.142193665363281E+01
              0.888996394830780E+00
             -0.712555996679487E-01
             -0.797107447894720E+00
             -0.295914943707904E+00
              0.279992711900596E+00
             -0.593472636353565E+00
             -0.728312720530600E+00
              0.145777800727355E+01
             -0.442551697282944E+00
             -0.657599613155991E+00
              0.502280751338275E+00
             -0.317482145457978E+00
              0.896740317783708E+00
             -0.129052625075463E-01
              0.642088459188188E-01
              0.175411311728898E+01
             -0.182874594116513E+00
             -0.620079113337150E+00
             -0.741767752288506E+00
             -0.866069805436190E+00
             -0.600892935881008E+00
              0.479312278021714E+00
              0.467071321209523E+00
              0.455546759444355E+00
              0.122172768177769E+01
              0.705554647953832E-01
              0.351682483350735E+00
             -0.979599578806323E+00
              0.222376259208357E-01
             -0.297720796548331E+00
             -0.449798858419692E+00
             -0.641934243002229E-01
              0.542720073507189E+00
              0.621520850648750E+00
             -0.334304384402505E-01
              0.186900832724598E+00
              0.465445554046737E+00
              0.592060180288510E+00
             -0.369942446670362E+00
             -0.161587732620812E+00
              0.167410271022663E-01
             -0.429673317929266E+00
             -0.847842699517400E-01
             -0.596918860364083E+00
              0.126103206031038E+01
              0.100348094073287E+01
             -0.275555888312255E+00
              0.246907645407274E+00
             -0.815232567070210E-01
             -0.475957936294744E+00
              0.594640592365965E+00
             -0.151971595081648E+00
              0.584381273464319E+00
             -0.796805402410486E+00
              0.289929619176428E+00
             -0.132929013833644E+00
             -0.886855621888330E+00
             -0.399827788922245E+00
              0.392388268432621E+00
             -0.158209310082926E+01
              0.623291009077792E+00
              0.771515652790083E+00
             -0.151476246598961E+00
             -0.111475325976553E+00
             -0.535922077769300E-01
              0.431486683397159E+00
             -0.548798687275881E+00
              0.516792934857304E+00
              0.519514511335364E+00
             -0.154353492168013E+01
             -0.582882818751559E+00
              0.389358453968232E+00
             -0.204491387050381E+00
              0.758645307679007E+00
             -0.100188438529319E+01
             -0.124553429112961E+00
             -0.651383691823894E+00
             -0.210521478202878E+01
              0.128901599380810E+01
             -0.986530413436677E+00
             -0.107493342544814E+01
              0.107676610314692E+00
              0.210496669425362E+01
              0.996929966421782E-01
             -0.497509069278291E+00
             -0.130054029731079E-01
             -0.747622753544905E-01
             -0.143127619423572E+01
             -0.921134980887101E+00
              0.138866534953286E+01
             -0.173612838239859E+00
             -0.602440354355989E+00
              0.821469072747622E+00
             -0.538124594842045E+00
              0.562346474193626E+00
              0.803946973320766E+00
             -0.901619022249053E+00
             -0.454279288326449E+00
             -0.522251473764386E+00
             -0.262616507918159E+00
             -0.333695499762440E+00
             -0.268015360696179E+00
              0.309348235183114E+00
             -0.569044077731262E+00
              0.462495619136806E+00
              0.918771722782830E+00
             -0.149443338206272E+00
             -0.318281430350484E+00
              0.236963003813022E+00
              0.894935226087840E+00
              0.881035365329130E+00
              0.127282078859615E+00
             -0.145523778690789E+00
             -0.157106931913545E+00
             -0.870306264793052E+00
              0.656533485839764E+00
             -0.416459424334845E+00
              0.350539767327971E+00
             -0.226801654274466E+00
              0.443355773261741E+00
              0.277494126350970E+00
             -0.133745603474764E+01
             -0.431345926138759E+00
             -0.128189763566714E+01
             -0.633580374435880E+00
              0.856459227404582E-01
             -0.311008234841591E+00
              0.557155915442889E+00
             -0.458247642502550E+00
              0.434461476319559E-01
              0.121813088339305E+00
              0.118439554561871E+01
              0.607037548881395E+00
             -0.505569299050705E+00
             -0.182144040368217E-01
              0.239374020992069E+00
              0.607074602870481E+00
             -0.462546885656145E-02
              0.909003664068986E+00
              0.464268657292915E+00
              0.147004997378502E+01
              0.707871277580645E-01
              0.104508731645151E+01
             -0.440792674620028E+00
             -0.647693089358537E+00
              0.697862036505033E-01
              0.156935476520729E+00
              0.401101603420460E+00
             -0.272414627017561E+00
             -0.198464505032411E+00
              0.373289621490116E+00
             -0.763743731368898E+00
             -0.946316150494483E+00
              0.128288767606005E+01
             -0.106163471027754E+00
             -0.635182317364448E+00
             -0.787519245090100E-01
             -0.234044886403446E+00
              0.667949984906642E+00
              0.594142819482139E+00
             -0.326400889653305E+00
             -0.155798539475933E-01
             -0.433782704986061E+00
             -0.572855077296273E+00
             -0.411835402411899E+00
             -0.159472310864284E+01
             -0.122365396253965E-01
             -0.107873041523604E+01
             -0.955428396741647E+00
             -0.640712635771072E+00
              0.343884793490332E+00
             -0.638912286644274E+00
              0.374535684560543E+00
             -0.103179013357123E+01
             -0.134927835983500E-02
             -0.689077230375701E+00
              0.108386800072644E+00
              0.128905483857854E+00
              0.545805632169013E+00
             -0.330727675282923E+00
             -0.309342121465866E+00
              0.498994740141592E+00
              0.983651193348279E+00
              0.523184262054423E+00
              0.172595269227624E+00
             -0.119856863785293E+01
             -0.240353871617071E+00
             -0.458752513072872E+00
             -0.101713582876638E+01
              0.711374263451132E+00
             -0.558695778769984E+00
             -0.119148245815650E+00
             -0.430312334784941E+00
             -0.163797929556689E+01
              0.909661952149821E+00
             -0.294318215314457E+00
              0.641572915263923E+00
             -0.121201315271866E+01
              0.106407019042757E+01
              0.893032004843750E-01
             -0.441686673084762E+00
              0.141007859280823E+00
             -0.352257220049149E+00
             -0.106257580893754E+01
              0.287424140644485E+00
              0.584096380755420E+00
             -0.505081128060780E-02
             -0.561178034592796E+00
             -0.236619677685377E+00
              0.325689178639462E+00
              0.581449311513634E+00
              0.102244096750936E+01
              0.381122401806216E+00
             -0.376751036228377E+00
              0.157798958047829E+01
              0.379925723315648E+00
              0.740824464929360E+00
             -0.258763148891005E+00
              0.486545207079086E+00
              0.360101554233021E+00
             -0.101256860340733E+01
             -0.360197946927379E+00
             -0.647494225144663E+00
             -0.634277483679144E+00
             -0.176642917511815E+00
             -0.168910104429907E+00
             -0.714297443753146E+00
             -0.183467152359666E+01
             -0.445898142663550E+00
              0.246900673066794E+00
              0.929029802300203E-01
              0.220441736910748E+00
              0.692182574791135E+00
              0.209859918791291E+00
              0.512839895128071E+00
             -0.720636842885851E+00
              0.715162927142821E+00
             -0.673883449474385E+00
             -0.112647388163843E+01
              0.312916448894276E+00
             -0.663558388625516E+00
             -0.667406161897873E+00
             -0.260693474539924E+01
             -0.129695487932687E+00
              0.136474122432025E+01
              0.688575551347872E+00
             -0.169813174122345E+00
             -0.167210895504109E+00
              0.654275518859146E+00
              0.104919566498005E+01
             -0.640817952633626E+00
             -0.204395418931521E+00
             -0.576141540599208E+00
             -0.557089476997744E+00
             -0.504279476549843E+00
              0.205317997847343E+00
              0.115932177396441E+01
             -0.107433234596339E+01
             -0.881137940707065E+00
              0.486676392673493E-01
             -0.225757499952184E+00
             -0.295467642315026E+00
             -0.147878764492077E+01
              0.983762974939853E+00
              0.341405804397629E+00
              0.130550829305710E+00
              0.853460771236657E+00
             -0.520496276190711E+00
              0.549782019656269E+00
              0.469686539332596E+00
              0.512556296254489E-01
             -0.134427769721462E+00
              0.159459410319829E+00
             -0.249009471870338E+00
              0.829129524135424E+00
             -0.675033411593843E+00
              0.736087881652185E+00
              0.154596772035751E+00
              0.257474807767510E+00
              0.333818962579427E+00
             -0.132484278319839E+01
              0.146512353701453E+00
             -0.107972058950829E+01
             -0.797919357467086E+00
             -0.790430224691703E+00
             -0.834302725149766E+00
              0.173933489360287E-01
              0.286983781113716E+00
              0.806131665546129E+00
              0.129807210591341E+00
              0.236370580642803E+00
             -0.114712774432248E+01
             -0.462413312276120E+00
              0.528322281282605E+00
             -0.300054184125103E-01
             -0.410678705791301E-01
             -0.152711866722445E+00
              0.594118443801993E+00
             -0.149122283254797E+01
              0.217434693601585E+00
              0.365765680091600E+00
              0.652576651614724E+00
              0.615917174120207E+00
             -0.930847994564649E+00
              0.235947118835646E+00
              0.100038754441870E+00
              0.116538797020595E+00
              0.637286179686374E-01
             -0.330527903945255E+00
             -0.678924235920834E+00
              0.279315388130462E+00
              0.964197632381087E+00
             -0.501424884204429E-01
              0.210973741699089E+00
              0.198552235658294E+00
             -0.492272746910309E+00
             -0.506934481345041E+00
             -0.198402909646508E+01
             -0.638676151105479E+00
             -0.924549744122403E+00
             -0.118889258298482E+00
             -0.109681267777772E+01
              0.124466494140098E+01
             -0.542526544073042E+00
             -0.889916640605455E+00
             -0.257890605896923E+01
              0.110283439362765E+01
              0.238155146513843E+00
              0.100032533861651E+00
             -0.996275401629376E+00
              0.747346520630954E-01
             -0.256879537607643E+00
             -0.514486544553880E+00
              0.129604717183876E+00
              0.523478188735310E+00
              0.932418465685956E-01
             -0.311006978796028E+00
              0.353842755750016E-01
              0.129895769419832E-01
              0.206974242712924E+00
             -0.108540590747742E+01
              0.118427891959194E+01
             -0.677553301437508E+00
             -0.426951332586468E+00
             -0.801086276284190E+00
             -0.173932778063502E+01
              0.880035092560842E-01
             -0.897783543767410E+00
             -0.326615341877394E+00
              0.515730761112335E+00
             -0.421967980432708E+00
             -0.150813990409340E+00
             -0.200815626615124E+00
             -0.367132305763993E+00
              0.435735707003544E-01
              0.844067855220060E+00
             -0.845765335610638E+00
              0.166168260164975E+01
             -0.384446530020579E+00
              0.545518686172650E+00
             -0.252262685091893E+00
              0.210187093822558E+00
             -0.202396670241136E+00
              0.740752815765819E+00
              0.104071628133607E+01
              0.295581108717470E+00
              0.779173439535456E+00
             -0.507523809769469E+00
             -0.995334507093357E-01
             -0.404142954270549E+00
              0.104116893974609E+01
              0.901131736605045E+00
              0.661867173563895E+00
             -0.218819533519930E+00
             -0.428240268487847E+00
              0.397255725312392E+00
             -0.457307982847251E+00
             -0.242380099308736E+00
             -0.104677672343070E+00
             -0.558727517215667E+00
              0.816472351631730E+00
             -0.163018453321787E+00
              0.592892421663268E+00
              0.327283479995373E+00
              0.260291681931158E+00
             -0.563115318994257E+00
              0.448582810250261E+00
             -0.229638646727926E+00
             -0.126743057029742E+00
             -0.193360922777570E-01
             -0.812706827980189E+00
              0.128181444757907E+01
             -0.454613262736903E+00
              0.827469506184819E-02
              0.384805108208016E+00
              0.331960228299344E+00
              0.124740214937741E+01
             -0.355114501127333E+00
              0.124068513922481E+01
              0.110024951679176E+01
             -0.154825241728218E+01
              0.129354790123853E+00
             -0.308201175020974E+00
              0.183316740399812E+00
              0.812620772162149E-01
              0.322964930657408E+00
              0.104420319202320E+01
              0.158148441998616E+01
             -0.122216908066836E+01
              0.125706628391081E+01
             -0.161441665286193E+01
             -0.136821677505515E+01
             -0.225176448688325E+00
              0.189873027712943E-01
              0.126599635151833E+01
              0.558292840501911E+00
             -0.250072135789034E+00
             -0.139779015184106E+01
              0.109532092335233E+01
             -0.691203524836484E+00
              0.155502215570618E-01
             -0.738085989492432E-01
              0.211922507609789E+01
             -0.386492098793966E+00
             -0.171982012184439E+01
              0.497046736185037E+00
             -0.264617088317555E+01
              0.212664393256616E+00
             -0.625293817066171E+00
             -0.280898072067764E+00
             -0.431803517749486E+00
             -0.967435631233174E+00
              0.613334349896223E+00
             -0.579580748927426E+00
             -0.206761248806592E+00
             -0.124342143042832E+01
             -0.769339706524930E-01
             -0.865200510183149E+00
             -0.125371623741722E+01
             -0.180095911754082E+01
              0.144523109990089E+00
             -0.576657430501001E+00
              0.108996116306367E+00
             -0.205477590625018E+00
             -0.135082691135346E+01
             -0.103807579509984E+01
             -0.925271018303450E+00
             -0.927707597951343E+00
              0.856503187317428E+00
              0.124199701194502E+00
             -0.796553316302081E+00
             -0.390531337403477E+00
             -0.440354586174461E+00
              0.659225879741059E+00
             -0.519381231900266E+00
             -0.108303231581816E+00
             -0.477994853227021E+00
             -0.649508369268662E+00
             -0.661353013375757E+00
              0.668456521506290E+00
             -0.215342538700320E+00
             -0.148655519962369E+01
              0.128634634740647E+01
              0.753018183908638E+00
              0.697056958288451E-01
             -0.130263665587694E+01
             -0.122937098768245E+01
              0.113060851632465E+00
              0.252867286754057E-01
             -0.545091006635822E+00
             -0.744175236898955E+00
              0.525115708178063E+00
             -0.920536343111298E-01
              0.439609065079269E+00
              0.780431349797670E+00
              0.585651336161887E+00
              0.423303534190222E+00
              0.362865693429706E+00
             -0.368005939290554E+00
             -0.234839114255911E+00
             -0.296454472418827E+00
             -0.614332100045115E+00
             -0.786408306077822E+00
             -0.100637747066361E+01
             -0.597886496258650E+00
             -0.196134164647209E+00
             -0.124799670723744E+01
             -0.242360920666647E+00
              0.552114352124136E+00
             -0.132450072073916E+01
              0.562716288208780E+00
              0.447616353350741E+00
             -0.116469171619396E+01
             -0.919162619398362E+00
             -0.357822243567074E+00
              0.228584128510248E+00
             -0.673240909080154E+00
              0.121857951042903E+01
              0.107727753067771E+01
             -0.125918745021390E+01
              0.723982266799116E+00
              0.595653702017426E+00
              0.160858521425912E+00
              0.327180523004290E+00
             -0.692353880534688E+00
             -0.252080744442660E+00
              0.870719517105378E-01
              0.325127322650813E+00
              0.692860439788619E+00
             -0.890829764198202E+00
             -0.158081806538052E+00
              0.276543190951325E+00
              0.103103087431635E+00
             -0.545604823904845E+00
              0.302194900955034E+00
             -0.423257385139921E+00
             -0.290077120954282E+00
              0.575857294439164E-02
             -0.100903709142402E+01
             -0.303327622252825E-03
             -0.200916932794870E+00
             -0.240667481068626E+00
              0.205818859515451E+00
             -0.877682340870737E+00
              0.931134395915675E+00
             -0.366511858645998E+00
             -0.217049295759913E+01
             -0.141038182138220E+01
              0.580643474897813E+00
             -0.649339041748736E+00
             -0.346685992527156E+00
             -0.407395487212966E+00
             -0.299650221876379E+00
             -0.168585366709773E+01
             -0.533270541527511E-01
             -0.102034872462988E+01
             -0.527342120104760E+00
              0.359766438766972E+00
              0.127009946451516E+01
              0.581035684032213E-01
              0.372593192459574E-01
              0.975870059657713E+00
             -0.902310819537313E+00
              0.483833673477298E+00
              0.111160494913441E+00
             -0.829131630082304E+00
             -0.452037761562377E+00
              0.330317198308614E+00
              0.446376790519185E-01
              0.255561529816051E+00
              0.234416763575006E+00
             -0.380945453799034E+00
             -0.509996690007672E+00
             -0.818285945124339E+00
              0.803492857663193E+00
             -0.110332610971288E+01
             -0.812444346996170E+00
              0.235564630299497E+00
             -0.139794367672570E+01
              0.356431579868574E+00
              0.959151346520049E+00
             -0.174317467102195E+00
              0.287022461268448E+00
             -0.519066493312935E+00
             -0.355120809092403E+00
              0.169482718597671E+00
              0.589597147698972E+00
             -0.605601542697343E+00
              0.385833065298546E+00
             -0.231718570576989E+00
              0.615048961898319E-01
              0.330817925147821E+00
              0.196769559732533E+00
             -0.177584597024137E+00
             -0.158727566000794E-01
              0.230112169893873E+00
              0.451852965359079E+00
             -0.115439337396859E+01
             -0.366897722340376E-02
              0.880095993243443E+00
             -0.147916521603186E+01
              0.542372044040196E+00
             -0.187762654010305E+01
             -0.172605711723616E+00
             -0.236911293082044E+00
             -0.631143885960803E-01
             -0.185741619781931E+00
             -0.457950166855917E+00
             -0.137397476367678E+00
              0.233313757800271E+00
             -0.389609508612994E+00
              0.183466048148772E+00
              0.147217675662759E+01
             -0.953151817285002E+00
             -0.420321872353220E+00
              0.662312260853470E+00
              0.349944218147991E+00
              0.673765866836086E+00
              0.295355406557844E+00
              0.326203994882146E+00
             -0.243146475213147E+00
             -0.808332549154275E+00
             -0.726463981336399E+00
             -0.519091856984452E+00
              0.739734573043265E-01
             -0.688575081784316E+00
             -0.192529495988163E+00
              0.103448621953639E+00
              0.393114340447273E+00
             -0.113290535457390E+00
              0.951515501431616E+00
             -0.102059161443964E+01
             -0.362878222421275E-01
             -0.123643753012436E+00
              0.508329167649382E+00
             -0.712587441140380E+00
             -0.459054955969931E+00
              0.269722840483883E+00
              0.778109526605973E+00
              0.120524728374772E+01
              0.524724724803656E+00
              0.742569876395766E+00
             -0.417609509464035E+00
              0.103123708244294E+01
              0.103573896784031E+01
             -0.541240839668582E-01
              0.535133928202803E+00
              0.626684869456306E+00
             -0.342097267463569E+00
              0.192225351559979E+00
              0.107462642973258E+01
             -0.368156408785479E+00
             -0.137783899651541E+00
             -0.102998779215294E+01
              0.384336730237862E+00
             -0.217612756664860E+00
              0.338561277457797E+00
              0.486213794272943E-01
             -0.647363033279492E+00
              0.755085620358696E+00
              0.649283446612523E+00
             -0.489799601039983E+00
              0.273188844996803E+00
             -0.957757220518026E+00
             -0.887368135829127E+00
              0.400295128929242E+00
             -0.111818577821012E+01
             -0.550298751851636E+00
              0.438737159991049E-01
              0.139746338647896E+01
             -0.355810874800294E+00
             -0.173354123623743E+00
             -0.306523712063444E+00
              0.184050498965269E+01
              0.308086572333933E+00
             -0.684155185261420E+00
              0.114014147956048E+01
              0.101853541477572E+01
              0.534031008097822E+00
              0.129219967713892E+01
              0.138851590083017E+01
             -0.867958685669559E-01
             -0.486040469970860E+00
             -0.441766826530502E+00
              0.436904584076321E+00
              0.628814142755201E+00
             -0.108696740226176E+00
             -0.383635806013704E+00
             -0.944611578395959E+00
             -0.370146487736984E+00
             -0.758883466683294E+00
              0.537713851307099E+00
              0.275894254815123E+00
              0.972799532719185E+00
              0.192498403723596E+00
             -0.386569429871026E+00
             -0.140856474739960E+00
              0.656811291179887E+00
              0.178980767783750E+00
              0.976889304521306E+00
              0.919739323153312E+00
             -0.161430216319602E+00
             -0.132914285351881E+00
             -0.162889283357119E+01
              0.816907529213264E+00
             -0.308391776187396E-01
              0.912175365937746E+00
             -0.398958294859530E+00
             -0.106267026886637E+01
              0.309634300133950E+00
              0.117160459690023E+01
             -0.414708705665304E+00
              0.110018976286325E+01
             -0.117599016457689E+01
             -0.416140352468656E+00
             -0.137965326281062E+01
              0.295224880898531E+00
              0.105342932502129E+00
              0.111144890800823E+00
             -0.100816658293764E+01
              0.149212150133938E+01
              0.876429975993797E+00
              0.103478618809977E+00
             -0.843032647771578E+00
              0.335612059773895E+00
             -0.332189835478653E+00
             -0.221991276938704E+00
             -0.422092968681605E+00
              0.287802833821282E+00
             -0.245542709246630E+00
             -0.299351336353935E+00
              0.373582101298343E+00
              0.381039970300323E+00
             -0.145843127105486E+01
              0.319620962745579E+00
              0.107658785867073E+01
              0.694110953228122E+00
             -0.226637055715367E+00
             -0.109368917570387E-01
             -0.602729691041744E+00
              0.920090390735405E+00
              0.172503072812513E+00
             -0.632245830529223E-01
             -0.934317685155008E-01
              0.178332824654990E+01
             -0.899487750904147E-01
              0.413395493548370E+00
              0.119859405897076E+01
              0.158662708121546E+01
              0.981723626458434E+00
              0.660569041883409E+00
             -0.102029878924578E+01
             -0.751453654907425E+00
              0.591804644496308E+00
              0.448500429832421E-01
              0.501347905088650E+00
              0.218000001714111E+00
              0.104309382819345E+01
             -0.129622821110152E+01
             -0.802095841834936E+00
             -0.171075179797597E+00
             -0.141690925656365E+01
              0.301901648157878E+00
              0.720019196836416E+00
              0.638723707668012E-01
             -0.340717848295697E+00
              0.348103832130914E+00
              0.222613644552202E+01
              0.501351124682574E+00
              0.283973393883582E+00
             -0.788299876916345E+00
             -0.979054501848710E+00
             -0.227250388992418E+00
              0.456228718925749E+00
             -0.939868339848982E-01
              0.400716451489791E+00
              0.571343966090232E+00
             -0.102759666580362E+01
              0.436082485588950E+00
              0.608572548723382E+00
              0.943196353306647E+00
             -0.161110552383592E+00
              0.628141761881755E-01
             -0.117861118714370E+00
             -0.743759976955293E+00
             -0.118906200276452E+01
              0.126321791353043E+01
             -0.159684722328333E+00
             -0.885150263769171E+00
              0.110916768838455E+00
             -0.483348218807784E+00
              0.140633864918916E+01
             -0.364266233477956E+00
             -0.608214644162183E+00
              0.585750536789322E+00
             -0.241764788840697E+00
              0.753930590490877E+00
             -0.230148652207163E-02
              0.153677982751326E+01
              0.833999887844907E+00
              0.158036335777987E+00
             -0.633571360118382E+00
              0.454815600642863E+00
             -0.887545830733378E+00
             -0.864326912068385E-01
              0.105174724990746E+01
             -0.412683426012172E+00
             -0.719935741053349E+00
             -0.362873229867660E+00
              0.851653252229886E+00
              0.203038935899833E+00
             -0.134117204620053E+01
              0.556256663176859E+00
              0.134024929742179E+00
              0.166957839718151E+00
             -0.797109756591327E+00
              0.152103583018884E+00
              0.567949196756426E+00
              0.776280989641877E+00
              0.104314840305546E+01
              0.556764035046338E+00
              0.128456606985815E+00
             -0.884170769107379E+00
             -0.689990065985649E+00
             -0.109133991180538E+01
             -0.204226142241266E+00
              0.557579728647972E+00
             -0.155393848140184E-01
              0.858759398326431E+00
             -0.516077535621054E+00
              0.286688884083155E+00
             -0.346315027787130E+00
             -0.435036346096295E+00
              0.951603044150385E+00
              0.936390797914726E-01
              0.100024075001824E+01
              0.853715216286037E-01
              0.338804083168156E+00
             -0.262682912089108E+00
              0.987311970438943E+00
             -0.238831323889753E+00
             -0.118912063788091E-01
             -0.127614196092011E+01
             -0.127905265609087E+00
              0.114665763005878E+01
              0.107499741661324E+01
              0.392428857504960E+00
             -0.243923805300886E+00
              0.657532810629666E-01
             -0.364978134112839E+00
             -0.268942893555979E+00
              0.144771469116459E+01
              0.105533209127900E+00
             -0.451548659923214E+00
             -0.175147506216253E+01
             -0.740598600060928E+00
             -0.613707590603450E+00
             -0.101303492065141E+01
             -0.964546515872019E+00
             -0.116786593277328E+01
             -0.730667554731529E+00
             -0.482782193819348E+00
             -0.770252040208233E+00
              0.723811433813308E+00
             -0.319562517827588E+00
             -0.144790628490364E+01
              0.683224683770215E+00
             -0.538269936383360E+00
             -0.129551585111289E+01
              0.164783325983996E+01
             -0.403619686563244E+00
              0.262860839192850E+00
              0.634596438178900E+00
              0.178756259258954E+00
              0.412783441978781E+00
              0.137215381066342E-01
              0.163988138103376E-01
             -0.201580282994747E+00
             -0.118417489321295E+01
              0.175016322681214E+00
             -0.199124567260860E+01
              0.114499862003279E+01
             -0.656985943417654E+00
             -0.284836632635098E+00
             -0.328946425011811E+00
              0.333789774614839E+00
             -0.276652214728486E+00
              0.475890964477661E+00
             -0.942205405565975E+00
              0.608119578283429E+00
              0.677621541749969E+00
              0.176788240122591E+00
              0.141661034785762E+00
              0.346293922722436E+00
              0.146805806031490E+00
              0.506235513073696E+00
             -0.833537438941176E-01
             -0.116112246575920E+01
              0.157714749082056E+00
             -0.548148959659383E+00
             -0.408902200390173E-01
              0.880761895638623E+00
             -0.131463326855076E+01
              0.255342992754626E-01
              0.498723983821519E-01
              0.151614082374198E+00
              0.505226945885621E+00
             -0.213387430237236E+00
              0.137865402627138E+01
              0.635009055653876E+00
             -0.249370711578394E+00
             -0.163506912904145E+00
              0.921513701910550E-01
              0.129107902324888E+01
             -0.817743780415547E+00
             -0.166190313285996E+01
              0.471706443870293E+00
             -0.123867349965159E+00
             -0.240043901198817E+00
              0.308959820110457E+00
              0.124239575260434E+01
              0.691312185890822E+00
             -0.286529055137120E+00
             -0.871234627651284E+00
             -0.191689615334288E+00
              0.451778625417935E+00
             -0.280026919517237E+00
             -0.123897110144517E+01
             -0.133533746907308E+00
             -0.157518185146826E+01
             -0.828431932636738E+00
              0.139831763763295E+01
             -0.844734484468059E+00
             -0.115223426764185E+01
             -0.873768552575676E+00
             -0.643007120878966E+00
              0.544699672304586E+00
              0.138046750292165E+01
             -0.140378348913166E+00
              0.438819814878875E+00
             -0.316401625169866E+00
             -0.110405671072798E+01
              0.846261426426398E+00
             -0.779742208868551E+00
              0.428100861791369E+00
              0.484528484977313E+00
             -0.241519212632436E+00
              0.630709832989983E+00
              0.645050921854414E+00
              0.192925094733419E+01
             -0.189273097959139E+00
             -0.884496325678443E+00
             -0.108811812931915E+01
             -0.296879975130242E+00
             -0.645578979123129E+00
              0.155478166085677E+01
             -0.741136050161680E+00
              0.159717403612757E+00
              0.559864332022428E-01
             -0.334738766810842E+00
             -0.137581629109488E+01
             -0.108272151588231E+00
              0.163583443556134E+01
              0.326127469845158E+00
              0.126239492479737E+00
             -0.928929513635641E+00
             -0.893335355161980E+00
             -0.267120241662204E+00
              0.746448873658765E+00
             -0.426867727213114E+00
              0.165982138513851E+01
             -0.746203679969306E+00
              0.304336972181523E+00
             -0.255044904132730E+00
             -0.101413465645536E+01
              0.103671928860242E+00
             -0.917920419729434E+00
             -0.120920160394932E+01
              0.159168530670274E+00
              0.233866634339992E-01
              0.796815527969594E+00
              0.427842027305203E+00
             -0.569376965917432E+00
              0.366122206687594E+00
             -0.141260697771107E+01
             -0.792530769026749E+00
              0.152585893807595E+01
              0.805832569494345E-01
             -0.112452099050593E+00
             -0.421062512062220E+00
             -0.244624693096007E-02
             -0.184993267283147E+00
              0.147298257687237E+01
              0.666484577661980E+00
             -0.161684257300880E+00
             -0.270076144403433E-01
             -0.635597390380716E+00
             -0.229473261257255E+00
             -0.103443388409171E+01
              0.839122294350789E+00
              0.107518338844874E+00
              0.144614467003414E+00
              0.287339814561288E+00
             -0.211965431227028E+00
             -0.361369116491016E+00
              0.100487330676835E+00
             -0.180158407538735E+01
             -0.186345861210001E+00
             -0.139482020345711E+00
             -0.106114298095866E+00
              0.827907336580524E+00
              0.103868093615778E+01
              0.285713562388731E+00
             -0.152499030851699E+01
              0.105147275692822E+01
             -0.395583572642099E+00
             -0.606225235074614E+00
             -0.142502281362989E+01
             -0.471782473050094E+00
              0.100047972098396E+01
              0.528271980927208E+00
              0.262478564818953E+00
              0.559601954625182E+00
             -0.912697238005933E+00
             -0.782402334106227E+00
              0.101578183496654E+01
              0.679600023105377E+00
              0.783890000284696E+00
              0.102012344871907E+00
              0.163272299662792E+00
              0.867473073326490E+00
              0.162093295835686E+01
             -0.317941679330448E+00
              0.641887191396005E+00
             -0.417916508678789E+00
             -0.712333657712402E+00
             -0.555443041368371E+00
             -0.523005376419764E+00
             -0.228393891461359E+00
             -0.791305699184078E+00
             -0.334175081527525E+00
             -0.212511894512342E+01
              0.518032904354212E+00
              0.458455757418315E+00
             -0.451306354060774E-01
             -0.609274675622597E+00
             -0.316186265013402E+00
             -0.908509421446744E+00
              0.109806499147586E+00
              0.130269296699316E+01
             -0.307950916850729E+00
             -0.306177768320217E+00
              0.304676676423442E+00
             -0.816226232966558E+00
              0.142086919269960E+01
              0.268671870470802E+00
              0.130435934177074E+00
              0.863063982981001E+00
             -0.721764517685148E-01
              0.964301311126888E+00
              0.315143827003466E+00
             -0.580945259527055E-01
              0.226779710372072E+00
             -0.140230971984663E+00
              0.112768260671118E+01
              0.116055286005688E+00
              0.328736982792795E+00
             -0.139641649070271E+00
              0.171457722163324E+00
             -0.154140144434288E+01
             -0.587080805886540E+00
             -0.799451589921304E+00
              0.846163886396174E+00
             -0.571768299906687E+00
             -0.935139241720947E+00
              0.968275774869207E+00
             -0.235290722892106E+00
              0.691746320809230E+00
             -0.146523648549115E+01
              0.323732756302110E+00
              0.762179505850864E-01
              0.966518362548978E-01
             -0.207968725501298E+00
             -0.993044080042900E-01
              0.818268373525353E+00
              0.459408415536231E-01
             -0.846930375200571E+00
             -0.346521233125317E+00
              0.324012990241907E+00
             -0.190066078441367E+01
             -0.144946786175848E+01
              0.205197745577950E-01
              0.248798681403153E+00
             -0.816156795975072E+00
              0.290598243333662E-02
              0.170985066004488E+01
              0.502296622477170E+00
             -0.894797619699053E+00
              0.125630868943782E+00
             -0.168930895033322E+00
              0.207290074281245E+00
             -0.573019287489305E+00
              0.357512132779480E+00
              0.388895281912697E+00
             -0.142892746163255E+00
              0.183972501095177E+01
             -0.863210347894690E-01
             -0.510821602685109E+00
              0.485623055690969E+00
              0.705565276823652E+00
             -0.542074737367742E+00
             -0.161709606393906E-01
              0.160115823796986E+01
             -0.316424609474772E-01
              0.849322921783416E+00
              0.270504996758153E+00
             -0.128896120940154E+00
             -0.266701431022737E+00
              0.803502649122847E+00
             -0.965082702079319E+00
             -0.432879427903323E-01
             -0.320534304028623E+00
             -0.673190570838074E+00
              0.182808333650157E+00
              0.389411210630291E+00
             -0.655849458901336E-02
             -0.321137108220393E-01
             -0.667841941213508E+00
              0.261520151284326E+00
             -0.279109568997340E-01
             -0.370540169781876E+00
             -0.341734318588165E+00
              0.303171923210297E+00
             -0.123652118071487E-01
             -0.631097276265099E+00
             -0.174866052075569E+01
              0.937510809173530E-01
              0.273331502648984E+00
             -0.778383423313627E+00
             -0.406133837327470E+00
              0.134251373759847E+01
              0.189836178727766E+00
              0.697867469483892E+00
              0.162844523612217E+00
              0.636685645520380E+00
              0.361259195620995E-01
             -0.652778806149410E+00
             -0.159152551094980E+00
              0.964896724909101E-01
              0.492889501929675E+00
              0.124815695982235E+01
              0.809519198329091E+00
              0.407210682713819E-01
              0.175629305855525E+00
              0.992024094077897E+00
              0.456361064251673E+00
             -0.116119486703110E+01
             -0.456087868978017E+00
              0.201055520247032E+00
              0.165076834108498E+00
              0.416645000903357E+00
             -0.849753460131436E+00
              0.959116601894203E-01
              0.660576996880144E+00
              0.802911149109568E+00
             -0.697974524287215E+00
              0.193315801612615E-01
             -0.386419631385566E-01
             -0.337791911226608E+00
             -0.434597304391652E+00
             -0.204521940400685E+00
             -0.172298286371135E+00
              0.178062546198761E+00
              0.685403829797534E+00
             -0.531143695557859E+00
              0.133188171825216E+01
              0.552542248387703E+00
              0.418511827814217E+00
              0.601847265377289E+00
              0.426039730659015E+00
              0.554876367084718E+00
              0.910316581315707E+00
             -0.774065499646446E+00
              0.103368900756342E+01
             -0.185204728820375E+01
              0.518618822895658E+00
             -0.172887543434649E+01
              0.132395393452107E+01
              0.127511953037761E+01
             -0.140844835942965E+00
             -0.779141628763724E+00
             -0.702534080020940E+00
             -0.898421504902505E+00
             -0.106909861113133E+01
              0.891104628998807E+00
              0.705747034128443E+00
              0.400643605461758E+00
              0.446416401764781E+00
              0.710169506048389E+00
             -0.669494123073392E+00
             -0.244104860682254E+00
              0.882161571785504E+00
             -0.193988401388528E+00
              0.810269321717513E+00
              0.125951380471647E+01
             -0.478070775188486E-01
             -0.123358962175447E+01
              0.698154586356292E-01
              0.340366222401132E-01
             -0.167779556679427E+00
              0.566080324957685E-01
             -0.107140390403542E+01
             -0.172109029587831E+00
              0.214494548645888E+00
              0.211300431909611E+00
              0.811207844669942E+00
             -0.674345321035953E+00
              0.887110567609685E+00
             -0.631440510514127E+00
              0.426415221314311E+00
              0.712104518128283E+00
 
 BEEF-vdW xc energy contributions
           1 :   -11.6167787871437     
           2 :    9.64936264802873     
           3 :   -6.85176068686893     
           4 :    4.24304513340116     
           5 :   -2.25629888930941     
           6 :   0.955305958082805     
           7 :  -0.230060556430900     
           8 :  -0.105920309193840     
           9 :   0.242107269389418     
          10 :  -0.323986109956305     
          11 :   0.409213279393054     
          12 :  -0.478227219761315     
          13 :   0.492537568760538     
          14 :  -0.444445467405989     
          15 :   0.353613109445778     
          16 :  -0.247347440999013     
          17 :   0.150020120644145     
          18 :  -7.946630585654368E-002
          19 :   3.930693121620088E-002
          20 :  -2.152627193315304E-002
          21 :   1.455143573770634E-002
          22 :  -1.032585374980677E-002
          23 :   4.290662605599849E-003
          24 :   2.599817007086003E-003
          25 :  -8.393625569571128E-003
          26 :   1.456842589455043E-002
          27 :  -2.226383191467640E-002
          28 :   2.853089196424641E-002
          29 :  -3.088864830205651E-002
          30 :   2.804049548304732E-002
          31 :   -1.47240121303366     
          32 :  -0.915611300081595     

     Writing output data file ./pwscf.save/
 
     init_run     :     73.14s CPU     75.64s WALL (       1 calls)
     electrons    :    510.30s CPU    541.57s WALL (       1 calls)
     forces       :     32.90s CPU     35.07s WALL (       1 calls)

     Called by init_run:
     wfcinit      :      1.22s CPU      1.28s WALL (       1 calls)
     potinit      :     59.51s CPU     61.21s WALL (       1 calls)
     hinit0       :     10.65s CPU     10.80s WALL (       1 calls)

     Called by electrons:
     c_bands      :     67.99s CPU     68.15s WALL (      14 calls)
     sum_band     :     38.34s CPU     44.69s WALL (      14 calls)
     v_of_rho     :    328.55s CPU    347.36s WALL (      15 calls)
     newd         :     18.08s CPU     24.72s WALL (      15 calls)
     PAW_pot      :      1.29s CPU      1.30s WALL (      15 calls)
     mix_rho      :    108.83s CPU    110.16s WALL (      14 calls)
     vdW_kernel   :     33.46s CPU     33.46s WALL (       1 calls)

     Called by c_bands:
     init_us_2    :      1.21s CPU      1.25s WALL (      29 calls)
     regterg      :     66.06s CPU     66.20s WALL (      14 calls)

     Called by *egterg:
     rdiaghg      :      0.02s CPU      0.03s WALL (     119 calls)
     h_psi        :     59.81s CPU     59.84s WALL (     120 calls)
     s_psi        :      0.96s CPU      0.96s WALL (     120 calls)
     g_psi        :      0.22s CPU      0.23s WALL (     105 calls)

     Called by h_psi:
     h_psi:calbec :      1.10s CPU      1.11s WALL (     120 calls)
     vloc_psi     :     57.37s CPU     57.40s WALL (     120 calls)
     add_vuspsi   :      0.99s CPU      0.99s WALL (     120 calls)

     General routines
     calbec       :      1.32s CPU      1.33s WALL (     138 calls)
     fft          :    239.66s CPU    239.71s WALL (    2814 calls)
     ffts         :     46.66s CPU     46.67s WALL (     553 calls)
     fftw         :     53.17s CPU     53.17s WALL (     626 calls)
 
     Parallel routines
 
     PWSCF        :  20m47.84s CPU  22m15.95s WALL

 
   This run was terminated on:  16:45:41  20Dec2022            

=------------------------------------------------------------------------------=
   JOB DONE.
=------------------------------------------------------------------------------=
