
     Program PWSCF v.6.7MaX starts on 20Dec2022 at 16:24:23 

     This program is part of the open-source Quantum ESPRESSO suite
     for quantum simulation of materials; please cite
         "P. Giannozzi et al., J. Phys.:Condens. Matter 21 395502 (2009);
         "P. Giannozzi et al., J. Phys.:Condens. Matter 29 465901 (2017);
          URL http://www.quantum-espresso.org", 
     in publications or presentations arising from this work. More details at
     http://www.quantum-espresso.org/quote

     Parallel version (MPI), running on     1 processors

     MPI processes distributed on     1 nodes
     Reading input from h2coh-gas-ensemble.in
Warning: card &CELL ignored
Warning: card / ignored

     Current dimensions of program PWSCF are:
     Max number of different atomic species (ntypx) = 10
     Max number of k-points (npk) =  40000
     Max angular momentum in pseudopotentials (lmaxx) =  3
     file C.pbe-n-kjpaw_psl.1.0.0.UPF: wavefunction(s)  2S 2P renormalized
     file H.pbe-kjpaw_psl.1.0.0.UPF: wavefunction(s)  1S renormalized
     file O.pbe-nl-kjpaw_psl.1.0.0.UPF: wavefunction(s)  2S 2P renormalized

     **************************************************************************
     Initializing libbeef V0.1.2 with the BEEF-vdW functional.
     Citation: Wellendorff et al., PRB 85, 235149 (2012).
     **************************************************************************


     IMPORTANT: XC functional enforced from input :
     Exchange-correlation= BEEF-VDW
                           (   1   4  43  14   2   0   0)
     Any further DFT definition will be discarded
     Please, verify this is what you really want


     gamma-point specific algorithms are used

     Subspace diagonalization in iterative solution of the eigenvalue problem:
     a serial algorithm will be used

 
     G-vector sticks info
     --------------------
     sticks:   dense  smooth     PW     G-vecs:    dense   smooth      PW
     Sum       33113   33113   8275              4232863  4232863  528973
 


     bravais-lattice index     =            0
     lattice parameter (alat)  =      41.2302  a.u.
     unit-cell volume          =   67423.7841 (a.u.)^3
     number of atoms/cell      =            5
     number of atomic types    =            3
     number of electrons       =        13.00
     number of Kohn-Sham states=           11
     kinetic-energy cutoff     =      60.0000  Ry
     charge density cutoff     =     240.0000  Ry
     scf convergence threshold =      1.0E-06
     mixing beta               =       0.7000
     number of iterations used =            8  local-TF  mixing
     Exchange-correlation= BEEF-VDW
                           (   1   4  43  14   2   0   0)

     celldm(1)=  41.230207  celldm(2)=   0.000000  celldm(3)=   0.000000
     celldm(4)=   0.000000  celldm(5)=   0.000000  celldm(6)=   0.000000

     crystal axes: (cart. coord. in units of alat)
               a(1) = (   1.000000   0.000000   0.000000 )  
               a(2) = (   0.000000   1.020052   0.000000 )  
               a(3) = (   0.000000   0.000000   0.943071 )  

     reciprocal axes: (cart. coord. in units 2 pi/alat)
               b(1) = (  1.000000  0.000000  0.000000 )  
               b(2) = (  0.000000  0.980342  0.000000 )  
               b(3) = (  0.000000  0.000000  1.060366 )  


     PseudoPot. # 1 for C  read from file:
     /users/bkreitz1/quantum-espresso/potentials/C.pbe-n-kjpaw_psl.1.0.0.UPF
     MD5 check sum: a169b0ebad56f5ec0d79c4633f80bf22
     Pseudo is Projector augmented-wave + core cor, Zval =  4.0
     Generated using 'atomic' code by A. Dal Corso  v.6.7MaX
     Shape of augmentation charge: PSQ
     Using radial grid of 1073 points,  4 beta functions with: 
                l(1) =   0
                l(2) =   0
                l(3) =   1
                l(4) =   1
     Q(r) pseudized with 0 coefficients 


     PseudoPot. # 2 for H  read from file:
     /users/bkreitz1/quantum-espresso/potentials/H.pbe-kjpaw_psl.1.0.0.UPF
     MD5 check sum: ae98473e6dc62675f0d0baffdab24f65
     Pseudo is Projector augmented-wave, Zval =  1.0
     Generated using 'atomic' code by A. Dal Corso  v.6.7MaX
     Shape of augmentation charge: PSQ
     Using radial grid of  929 points,  2 beta functions with: 
                l(1) =   0
                l(2) =   0
     Q(r) pseudized with 0 coefficients 


     PseudoPot. # 3 for O  read from file:
     /users/bkreitz1/quantum-espresso/potentials/O.pbe-nl-kjpaw_psl.1.0.0.UPF
     MD5 check sum: eef08af8b58d9ec80f8fdb78829eb7cf
     Pseudo is Projector augmented-wave + core cor, Zval =  6.0
     Generated using 'atomic' code by A. Dal Corso  v.6.7MaX
     Shape of augmentation charge: PSQ
     Using radial grid of 1095 points,  4 beta functions with: 
                l(1) =   0
                l(2) =   0
                l(3) =   1
                l(4) =   1
     Q(r) pseudized with 0 coefficients 


     atomic species   valence    mass     pseudopotential
        C              4.00    12.01100     C ( 1.00)
        H              1.00     1.00800     H ( 1.00)
        O              6.00    15.99900     O ( 1.00)

     No symmetry found



   Cartesian axes

     site n.     atom                  positions (alat units)
         1           C   tau(   1) = (   0.5000496   0.4828518   0.4650258  )
         2           H   tau(   2) = (   0.4565216   0.4592768   0.4663318  )
         3           H   tau(   3) = (   0.5432934   0.4594145   0.4693912  )
         4           H   tau(   4) = (   0.4616955   0.5608848   0.4803139  )
         5           O   tau(   5) = (   0.5023783   0.5433978   0.4820486  )

     number of k points=     1  Gaussian smearing, width (Ry)=  0.0050
                       cart. coord. in units 2pi/alat
        k(    1) = (   0.0000000   0.0000000   0.0000000), wk =   2.0000000

     Dense  grid:  2116432 G-vectors     FFT dimensions: ( 216, 216, 192)

     Estimated max dynamical RAM per process >       3.31 GB

     Initial potential from superposition of free atoms

     starting charge   12.99993, renormalised to   13.00000

     negative rho (up, down):  1.542E-02 0.000E+00


     %%%%%%%%%%%%%%%%%%%%%%%%%%%%%%%%%%%%%%%%%%%%%%%%%%%%%%%%%%%%%%%%%%%%%%%%
     %                                                                      %
     % You are using vdW-DF, which was implemented by the Thonhauser group. %
     % Please cite the following two papers that made this development      %
     % possible and the two reviews that describe the various versions:     %
     %                                                                      %
     %   T. Thonhauser et al., PRL 115, 136402 (2015).                      %
     %   T. Thonhauser et al., PRB 76, 125112 (2007).                       %
     %   K. Berland et al., Rep. Prog. Phys. 78, 066501 (2015).             %
     %   D.C. Langreth et al., J. Phys.: Condens. Matter 21, 084203 (2009). %
     %                                                                      %
     %                                                                      %
     % If you are calculating the stress with vdW-DF, please also cite:     %
     %                                                                      %
     %   R. Sabatini et al., J. Phys.: Condens. Matter 24, 424209 (2012).   %
     %                                                                      %
     %%%%%%%%%%%%%%%%%%%%%%%%%%%%%%%%%%%%%%%%%%%%%%%%%%%%%%%%%%%%%%%%%%%%%%%%


     Starting wfcs are   11 randomized atomic wfcs
     Checking if some PAW data can be deallocated... 

     total cpu time spent up to now is       76.3 secs

     Self-consistent Calculation

     iteration #  1     ecut=    60.00 Ry     beta= 0.70
     Davidson diagonalization with overlap
     ethr =  1.00E-02,  avg # of iterations =  6.0

     negative rho (up, down):  1.117E-02 0.000E+00

     total cpu time spent up to now is      116.9 secs

     total energy              =     -64.98607235 Ry
     estimated scf accuracy    <       0.53586470 Ry

     iteration #  2     ecut=    60.00 Ry     beta= 0.70
     Davidson diagonalization with overlap
     ethr =  4.12E-03,  avg # of iterations =  1.0

     negative rho (up, down):  7.425E-03 0.000E+00

     total cpu time spent up to now is      154.7 secs

     total energy              =     -64.97591576 Ry
     estimated scf accuracy    <       0.11243081 Ry

     iteration #  3     ecut=    60.00 Ry     beta= 0.70
     Davidson diagonalization with overlap
     ethr =  8.65E-04,  avg # of iterations =  5.0

     negative rho (up, down):  5.021E-03 0.000E+00

     total cpu time spent up to now is      193.9 secs

     total energy              =     -64.98282663 Ry
     estimated scf accuracy    <       0.02180321 Ry

     iteration #  4     ecut=    60.00 Ry     beta= 0.70
     Davidson diagonalization with overlap
     ethr =  1.68E-04,  avg # of iterations = 10.0

     negative rho (up, down):  1.615E-02 0.000E+00

     total cpu time spent up to now is      236.0 secs

     total energy              =     -64.98090820 Ry
     estimated scf accuracy    <       0.00924835 Ry

     iteration #  5     ecut=    60.00 Ry     beta= 0.70
     Davidson diagonalization with overlap
     ethr =  7.11E-05,  avg # of iterations =  6.0

     negative rho (up, down):  4.188E-02 0.000E+00

     total cpu time spent up to now is      277.5 secs

     total energy              =     -64.98072567 Ry
     estimated scf accuracy    <       0.00408048 Ry

     iteration #  6     ecut=    60.00 Ry     beta= 0.70
     Davidson diagonalization with overlap
     ethr =  3.14E-05,  avg # of iterations =  5.0

     negative rho (up, down):  7.207E-02 0.000E+00

     total cpu time spent up to now is      318.3 secs

     total energy              =     -64.98172846 Ry
     estimated scf accuracy    <       0.00162411 Ry

     iteration #  7     ecut=    60.00 Ry     beta= 0.70
     Davidson diagonalization with overlap
     c_bands:  1 eigenvalues not converged
     ethr =  1.25E-05,  avg # of iterations = 20.0

     negative rho (up, down):  6.906E-02 0.000E+00

     total cpu time spent up to now is      362.4 secs

     total energy              =     -64.98144564 Ry
     estimated scf accuracy    <       0.00064000 Ry

     iteration #  8     ecut=    60.00 Ry     beta= 0.70
     Davidson diagonalization with overlap
     ethr =  4.92E-06,  avg # of iterations = 13.0

     negative rho (up, down):  6.153E-02 0.000E+00

     total cpu time spent up to now is      405.5 secs

     total energy              =     -64.98118629 Ry
     estimated scf accuracy    <       0.00027333 Ry

     iteration #  9     ecut=    60.00 Ry     beta= 0.70
     Davidson diagonalization with overlap
     ethr =  2.10E-06,  avg # of iterations = 14.0

     negative rho (up, down):  3.983E-02 0.000E+00

     total cpu time spent up to now is      448.5 secs

     total energy              =     -64.98077997 Ry
     estimated scf accuracy    <       0.00012433 Ry

     iteration # 10     ecut=    60.00 Ry     beta= 0.70
     Davidson diagonalization with overlap
     ethr =  9.56E-07,  avg # of iterations = 15.0

     negative rho (up, down):  3.195E-02 0.000E+00

     total cpu time spent up to now is      491.5 secs

     total energy              =     -64.98073551 Ry
     estimated scf accuracy    <       0.00003665 Ry

     iteration # 11     ecut=    60.00 Ry     beta= 0.70
     Davidson diagonalization with overlap
     ethr =  2.82E-07,  avg # of iterations =  5.0

     negative rho (up, down):  2.500E-02 0.000E+00

     total cpu time spent up to now is      530.3 secs

     total energy              =     -64.98076840 Ry
     estimated scf accuracy    <       0.00001862 Ry

     iteration # 12     ecut=    60.00 Ry     beta= 0.70
     Davidson diagonalization with overlap
     ethr =  1.43E-07,  avg # of iterations =  6.0

     negative rho (up, down):  2.179E-02 0.000E+00

     total cpu time spent up to now is      569.9 secs

     total energy              =     -64.98077071 Ry
     estimated scf accuracy    <       0.00000632 Ry

     iteration # 13     ecut=    60.00 Ry     beta= 0.70
     Davidson diagonalization with overlap
     ethr =  4.86E-08,  avg # of iterations =  8.0

     negative rho (up, down):  2.042E-02 0.000E+00

     total cpu time spent up to now is      608.9 secs

     total energy              =     -64.98077509 Ry
     estimated scf accuracy    <       0.00000157 Ry

     iteration # 14     ecut=    60.00 Ry     beta= 0.70
     Davidson diagonalization with overlap
     ethr =  1.21E-08,  avg # of iterations =  2.0

     negative rho (up, down):  1.984E-02 0.000E+00

     total cpu time spent up to now is      637.7 secs

     End of self-consistent calculation

          k = 0.0000 0.0000 0.0000 (264487 PWs)   bands (ev):

   -27.0591 -16.9004 -13.4354 -11.3995  -9.6102  -9.0013  -3.3865  -1.3205
    -0.5023  -0.2705  -0.1555

     the Fermi energy is    -3.3865 ev

!    total energy              =     -64.98077643 Ry

     total all-electron energy =      -231.591756 Ry
     estimated scf accuracy    <       0.00000048 Ry
     smearing contrib. (-TS)   =      -0.00282095 Ry
     internal energy E=F+TS    =     -64.97795548 Ry

     The total energy is F=E-TS. E is the sum of the following terms:
     one-electron contribution =    -133.30404382 Ry
     hartree contribution      =      68.84708918 Ry
     xc contribution           =     -14.70674811 Ry
     ewald contribution        =      30.86538215 Ry
     one-center paw contrib.   =     -16.67963488 Ry

     convergence has been achieved in  14 iterations

     negative rho (up, down):  1.984E-02 0.000E+00

     Forces acting on atoms (cartesian axes, Ry/au):

     atom    1 type  1   force =     0.00010790    0.00509386    0.00320614
     atom    2 type  2   force =     0.00019368   -0.00034888   -0.00073944
     atom    3 type  2   force =    -0.00053886    0.00027430   -0.00044515
     atom    4 type  2   force =     0.00160152   -0.00078563    0.00016797
     atom    5 type  3   force =    -0.00136425   -0.00423366   -0.00218952

     Total force =     0.008081     Total SCF correction =     0.000337

     negative rho (up, down):  1.984E-02 0.000E+00

     negative rho (up, down):  1.984E-02 0.000E+00

     negative rho (up, down):  1.984E-02 0.000E+00

     negative rho (up, down):  1.984E-02 0.000E+00

     negative rho (up, down):  1.984E-02 0.000E+00

     negative rho (up, down):  1.984E-02 0.000E+00

     negative rho (up, down):  1.984E-02 0.000E+00

     negative rho (up, down):  1.984E-02 0.000E+00

     negative rho (up, down):  1.984E-02 0.000E+00

     negative rho (up, down):  1.984E-02 0.000E+00

     negative rho (up, down):  1.984E-02 0.000E+00

     negative rho (up, down):  1.984E-02 0.000E+00

     negative rho (up, down):  1.984E-02 0.000E+00

     negative rho (up, down):  1.984E-02 0.000E+00

     negative rho (up, down):  1.984E-02 0.000E+00

     negative rho (up, down):  1.984E-02 0.000E+00

     negative rho (up, down):  1.984E-02 0.000E+00

     negative rho (up, down):  1.984E-02 0.000E+00

     negative rho (up, down):  1.984E-02 0.000E+00

     negative rho (up, down):  1.984E-02 0.000E+00

     negative rho (up, down):  1.984E-02 0.000E+00

     negative rho (up, down):  1.984E-02 0.000E+00

     negative rho (up, down):  1.984E-02 0.000E+00

     negative rho (up, down):  1.984E-02 0.000E+00

     negative rho (up, down):  1.984E-02 0.000E+00

     negative rho (up, down):  1.984E-02 0.000E+00

     negative rho (up, down):  1.984E-02 0.000E+00

     negative rho (up, down):  1.984E-02 0.000E+00

     negative rho (up, down):  1.984E-02 0.000E+00

     negative rho (up, down):  1.984E-02 0.000E+00

     negative rho (up, down):  1.984E-02 0.000E+00

     negative rho (up, down):  1.984E-02 0.000E+00

     negative rho (up, down):  1.984E-02 0.000E+00

     negative rho (up, down):  1.984E-02 0.000E+00
 BEEFens 2000 ensemble energies
             -0.109878570904008E+01
             -0.357228739223898E-01
             -0.226707195413009E+00
              0.753721657598079E+00
             -0.357900836280610E+00
             -0.270984766886389E+00
             -0.808173245177333E+00
             -0.166433179244135E+01
             -0.602506034312641E+00
             -0.649885132965437E+00
             -0.608167833072414E+00
              0.886691235240594E-01
              0.544484631866604E-01
             -0.701110985444635E-01
              0.681375222228850E-01
              0.802761324396307E+00
             -0.350449769226903E+00
             -0.185237628128775E+00
              0.399992157387508E+00
             -0.189202250745970E+01
              0.959867402830943E+00
             -0.327585267634690E+00
             -0.110235124578074E+00
             -0.155471432348762E+00
              0.378423779874950E-01
             -0.102270804319912E+00
              0.151393157969200E+01
             -0.368939908276285E+00
             -0.145532535261978E+00
             -0.956369536742498E+00
              0.119339149697234E+01
             -0.880881284866062E-01
             -0.715522397774919E+00
              0.317462056140597E+00
             -0.483856065599770E-01
              0.480121918448189E+00
              0.234937179204673E-01
              0.271598685607888E-02
              0.624492064988144E+00
             -0.172278889511938E+01
              0.939569837786499E+00
              0.198970580929944E+00
             -0.196259183708057E+00
             -0.515101463134899E+00
              0.204755635457795E+00
             -0.291601907787869E+00
              0.864704244389330E+00
              0.604949011626244E+00
             -0.335232854661419E+00
             -0.544830811304392E+00
             -0.516935390834501E+00
             -0.632107621064595E+00
              0.364275616936148E+00
             -0.905450949166685E+00
              0.273540839095872E+00
              0.103933963776144E+01
              0.127233310218110E+01
              0.546739619970186E+00
              0.297545141853282E+00
              0.544696899611390E+00
              0.155327817660431E+01
              0.302157880942337E+00
             -0.947394786140315E+00
             -0.170264446202332E+00
             -0.504034020136113E+00
              0.107230158206850E+01
             -0.125363293349208E+01
             -0.100596561927804E+01
             -0.561420590434710E+00
             -0.304284976749292E+00
             -0.683500376010852E+00
              0.471642851340420E+00
              0.231325345885278E+00
              0.269432053583165E+00
             -0.651857466638042E+00
             -0.607572079516972E+00
             -0.995997184606428E+00
              0.553521240816290E+00
             -0.578354141985450E+00
              0.530731482550055E+00
             -0.129113399364566E+00
             -0.493832557371507E+00
             -0.879360129743274E+00
             -0.259088976548348E+00
             -0.290456585002406E+00
             -0.265880229270300E+00
              0.662058970344505E+00
              0.131204479996175E+01
             -0.773521171511479E+00
             -0.136935552353201E+01
             -0.315354478369041E+00
              0.187436311471646E+01
             -0.945905390718065E+00
              0.525836476977271E+00
             -0.194564464927490E+00
             -0.102602848460732E+01
              0.476811206096688E+00
              0.529090784629005E+00
             -0.245069793859777E+00
              0.486201356395771E+00
             -0.434278298089222E+00
             -0.103131953231083E+01
              0.170778411364109E+01
              0.778176592750608E+00
              0.371630564561976E+00
              0.214848717241143E+00
              0.380142723177672E+00
              0.139357035113346E+01
             -0.455535039320798E+00
              0.406055389265800E-01
             -0.237538847469663E+01
              0.320244326687432E+00
             -0.113720088990608E+01
              0.209319348043054E+00
              0.366401430703509E+00
             -0.626441503661514E+00
             -0.860306282592654E+00
              0.506110361998928E-01
             -0.521291536637767E+00
              0.754150883356183E+00
             -0.766300145833468E+00
             -0.138139236370252E+00
             -0.657680001870918E+00
             -0.572774317094069E-01
              0.706571718873059E-01
              0.371728888321504E+00
             -0.798842011370482E-02
             -0.110946500023893E+00
              0.112766955028910E+01
              0.156872691685552E+01
              0.841754258627600E+00
              0.113091794614263E+01
             -0.232822663100171E+00
              0.143394788633009E+00
              0.883876798289544E+00
              0.726785278346567E-01
             -0.129814050151602E+01
             -0.742781184007704E+00
             -0.826355533706221E+00
             -0.504417810565915E+00
              0.428115357946098E+00
             -0.207817431958344E+01
             -0.203799049319929E+00
              0.788653457047372E+00
             -0.694953708880739E+00
             -0.500577383941193E+00
              0.972434021581394E+00
              0.842565677689707E+00
             -0.478938716623554E+00
              0.541810590843258E+00
             -0.423738819405479E+00
              0.650632153567728E+00
              0.131884374208271E+00
              0.190580777655757E+00
             -0.140286152544228E+01
             -0.821811620585686E+00
             -0.150658871519257E+00
             -0.514990951084326E-01
             -0.727119924124402E+00
              0.189182895154237E+01
             -0.201010832819648E+00
             -0.457370882196823E+00
              0.682478059840767E+00
             -0.769803520769816E+00
             -0.638063527022211E+00
              0.547571137560908E+00
              0.201944640364653E+00
              0.171374257683356E+00
              0.263325049880023E+00
             -0.182552891210769E+00
              0.172481714393889E+00
              0.100399429048271E+01
             -0.472233127189549E+00
              0.375188406630912E+00
              0.151512754115489E+01
              0.531639903963062E+00
             -0.715278310656622E-01
             -0.342338552186079E+00
              0.264601463533329E+01
             -0.420622030508161E+00
              0.664287414191408E+00
              0.521730513799336E+00
              0.486784728920953E+00
              0.159733662541418E+01
              0.788334736549563E+00
             -0.965444127442876E-01
              0.420796710039983E+00
              0.884982153497170E+00
              0.661243639168860E+00
             -0.104592759673920E+01
              0.160845053860820E+01
             -0.147036012221597E+01
             -0.194562502209576E+00
              0.964829759339385E+00
              0.269345362020435E+00
              0.886712278036388E-01
              0.481755992662178E+00
              0.264938824545529E+00
              0.557995242686392E+00
             -0.106956144737571E+01
              0.623067572838139E-01
             -0.395546013855313E+00
             -0.106132500890657E+00
             -0.414258694850265E-01
             -0.215366045722677E+00
             -0.107837208694680E+00
              0.142137212300927E+01
             -0.824379407310698E-01
             -0.496826957660590E+00
             -0.224927553544981E-01
              0.241741476377016E+00
             -0.109512784536050E+01
             -0.925472429945736E+00
             -0.576432373629386E+00
             -0.107103726102537E+01
             -0.324717769335183E+00
             -0.689699033547591E+00
              0.314536635916025E+00
              0.283267514274195E-01
             -0.220325802091376E+00
             -0.140921158314788E+00
              0.875341677362291E-01
             -0.254250892838159E+00
              0.110057131570175E+01
             -0.149124284480979E+01
             -0.221968948648651E+00
             -0.241123835592220E+00
              0.265345677499221E+00
              0.351570314413443E+00
             -0.872685322890501E+00
             -0.213607381389969E+00
              0.763978900711009E+00
             -0.343698024587699E+00
              0.221400786045821E+00
              0.583689659994201E+00
             -0.760797135726499E-02
              0.197135044704802E+01
             -0.201030579827250E+00
             -0.599894613250097E+00
              0.750676708829090E-02
             -0.478941522943432E+00
              0.923380657587982E+00
             -0.816983133964950E+00
              0.234446108034483E+00
              0.859833857624212E+00
             -0.227473593228170E+00
              0.200861389088538E+01
              0.217666086598044E+01
             -0.120973840156303E+01
              0.976201213173938E+00
              0.393155649930017E+00
             -0.955223018483382E+00
              0.314296998400532E+00
              0.719752059208389E+00
              0.792491866872608E+00
              0.832398108503640E-01
              0.299018433721413E+00
              0.126815852843375E+01
             -0.392806462080926E+00
              0.153450623875562E+00
              0.115924087987433E+01
             -0.619294895448337E+00
             -0.402017753415558E+00
              0.100670865687763E+01
              0.525637663878700E+00
              0.132204591737309E+01
              0.573882481268956E+00
              0.226102246022062E+00
              0.426429587940352E+00
              0.726877609577642E+00
             -0.877298070030749E+00
              0.120302538601657E+00
              0.447488289055082E+00
              0.178900151951837E+00
              0.409021424850467E+00
             -0.105606218844744E+01
              0.554971455732423E+00
             -0.740851255498979E+00
             -0.525759234529720E+00
              0.319368354232455E+00
             -0.156793588218473E+00
              0.101644809895836E+01
             -0.261142226505899E+00
              0.496163853878017E+00
              0.510409834474634E+00
              0.132235264591056E+01
              0.893810290720110E+00
              0.877438136630566E+00
             -0.699146596319231E-01
             -0.185670663395202E+00
             -0.504768101712159E+00
              0.139425606809988E+01
              0.141406956523350E+01
              0.667879407367576E+00
             -0.480260716382234E+00
              0.845463300946211E+00
             -0.123091935241284E-01
              0.305264807362498E+00
              0.118241403098048E+01
             -0.465765743541784E-01
             -0.178298335882553E+00
             -0.372420106504633E+00
             -0.103280152250498E+01
              0.164738796452637E+01
              0.857877460458883E+00
             -0.110172416042050E+01
             -0.367827898621333E+00
              0.433723267515447E+00
             -0.190550367797731E+00
              0.112034156474669E+01
              0.269796889558131E+00
              0.138732457245990E+01
              0.504421174730133E+00
             -0.411240309978512E+00
              0.320831945516354E+00
             -0.121036482071319E+00
             -0.439999128221288E+00
              0.296034063015962E+00
              0.287961896590168E+00
              0.152805930680938E+01
              0.130268818891627E+01
              0.972290229651546E+00
              0.116003519984286E+01
              0.113921854875375E+00
             -0.440054167012331E+00
              0.225162933167556E+00
             -0.576116638407748E+00
             -0.957601155316728E+00
             -0.977001232300987E+00
             -0.547434056314346E+00
             -0.185170500092852E+01
             -0.626738787578991E+00
             -0.147585216760042E+01
              0.342813569347530E+00
             -0.772815557342123E+00
              0.861234442091348E+00
             -0.167150098956605E+01
             -0.507818896649583E+00
              0.683794836364712E+00
              0.374400203520053E+00
             -0.153919054039721E+01
              0.919166130575103E+00
             -0.486678999794035E+00
              0.945623368228292E+00
             -0.487082834333166E+00
             -0.134033744086856E+01
              0.308961808657563E+00
             -0.112623408310983E+01
             -0.745349835787623E-01
             -0.147757753929508E-01
              0.719943338090616E+00
              0.214792229020896E+01
             -0.742643309734850E+00
             -0.648833952229066E+00
             -0.111333928220549E+00
             -0.140779541349520E+00
             -0.136897796186043E+01
             -0.977637054330097E+00
              0.863927001714075E+00
             -0.320120048903944E+00
              0.368615304138454E+00
             -0.843526477132729E+00
             -0.266119917118528E+00
             -0.716809275771509E+00
              0.825603809907897E+00
              0.234141082890213E+00
             -0.416822465756981E+00
             -0.292648120998705E+00
              0.219885714758398E+00
             -0.135911860125651E+00
              0.687444484281268E+00
             -0.457278226590232E+00
              0.174052311765108E+00
              0.566706375741876E+00
              0.226749493545160E+00
             -0.394456941412477E+00
              0.265514224854308E+01
              0.100235796728652E+01
              0.168701101885598E+00
              0.111184119620320E+00
             -0.103187915689583E+01
              0.563079444738922E+00
             -0.132870493936269E+01
             -0.582972526701127E+00
             -0.102177187386488E+01
             -0.304451093398869E+00
              0.100582351034453E+01
             -0.990299913395754E+00
              0.437383300091061E+00
             -0.649892996144841E-01
              0.295035417609650E-01
             -0.541750971824889E+00
             -0.710031848120804E+00
             -0.944332288971363E-01
             -0.590310659689024E+00
             -0.395834190733428E+00
             -0.673372830849075E+00
             -0.943307017153249E-01
             -0.545820443974659E+00
             -0.836008607729640E+00
              0.379559362258428E+00
             -0.222992606808686E+00
              0.398517241455452E+00
              0.153947336924177E+00
             -0.128560353646611E+01
             -0.879943587782590E+00
             -0.841645734471123E+00
              0.563487356594326E+00
             -0.104951193297858E+00
             -0.106706663284646E+01
              0.962818351272980E+00
             -0.731229133482408E+00
              0.990481376308227E+00
             -0.525204499222259E+00
             -0.841670921429414E+00
              0.438508291913148E+00
             -0.124648602756306E+01
             -0.548861256647573E+00
              0.101787184149893E+01
              0.347281234315929E+00
             -0.721737254960503E+00
              0.949277563885484E+00
             -0.276355224522456E+00
             -0.625850784017979E+00
             -0.517594502206905E+00
             -0.893978251665079E+00
              0.428104333320379E+00
             -0.149087005945836E+01
             -0.132165662054326E+01
             -0.127434494716194E+00
             -0.495017735462604E+00
             -0.103114586622648E+01
              0.130486851125907E+01
              0.235467072151635E+01
             -0.387318925405469E+00
             -0.551896918376755E-01
             -0.104526988170850E+01
              0.112963777106759E+01
              0.372817564210033E+00
             -0.338759030140238E+00
             -0.628227508223770E+00
              0.249664758751893E+00
             -0.103399890798131E+01
             -0.190048395363344E+00
             -0.149223265631036E+01
              0.575284908203091E+00
              0.211489769664156E+00
             -0.927841006587116E-01
             -0.183128767040383E+00
             -0.698495489125930E+00
             -0.216146705713041E+00
              0.232878565901389E+01
             -0.268775163509035E+00
             -0.818538528247528E+00
             -0.117802710159377E+01
              0.236012779792540E+00
             -0.643509785106804E+00
              0.157220903912840E+00
              0.567484504172076E+00
              0.794946442017972E-01
              0.612124745471259E+00
              0.303319988382240E+00
              0.100920291029307E+01
              0.443128337697618E+00
             -0.615951124443950E+00
              0.904072650574409E+00
              0.595376775739361E+00
              0.218864954015805E+00
              0.640003301648485E+00
             -0.518034710111467E+00
              0.122571260139595E+01
              0.431893728344012E+00
             -0.590622456700640E+00
             -0.986250260824602E-01
             -0.279786535888908E+00
              0.276787740653983E+00
             -0.454632123995030E+00
             -0.185322929385484E+00
             -0.218001644731839E+00
              0.139253328571871E+01
              0.996472808292093E+00
             -0.112972537955828E+01
             -0.125640906533120E+00
             -0.873539949255030E+00
             -0.235269125213258E+00
             -0.366519357192279E+00
              0.185624428803774E+00
             -0.656434907481782E-01
             -0.479261681518868E+00
              0.274262573321376E+00
             -0.156598919283546E+00
             -0.135857820048181E+00
              0.149696714740530E+01
              0.269072039159445E+00
             -0.141559692417634E+01
             -0.669856651500270E+00
              0.162813937085614E+01
              0.400136204992548E+00
             -0.141763188531955E+00
              0.188505160008766E+01
             -0.306389100105702E+00
             -0.135177132889780E+00
             -0.197445574892543E+00
              0.269626054786139E+00
              0.552712606982626E+00
              0.470722789035836E-01
              0.490136171549193E+00
             -0.202109624790480E+00
             -0.663417447816907E+00
             -0.664235104399214E+00
             -0.835460704613308E+00
              0.708201070253374E+00
              0.257976928117896E+00
              0.648533264419780E+00
              0.274605195888247E+00
              0.154169158615948E+01
              0.341269559517124E+00
             -0.131294249799144E+01
             -0.565446657616979E+00
              0.693523752930718E-01
             -0.482325800445382E+00
              0.108687660989790E+01
             -0.273601261260939E+00
              0.296321284912079E+00
              0.941305703077851E+00
             -0.138410496687998E+01
              0.253800328715122E+01
              0.333557673198598E+00
              0.414692496550305E+00
              0.647806390855427E+00
              0.707358607708972E-01
             -0.464905996212144E-01
              0.562775765946288E+00
             -0.593013135467508E+00
              0.147203633787060E+01
              0.128616267739442E+01
             -0.660833379524322E+00
              0.299517423971176E+00
              0.124069936956044E+01
             -0.378454993444229E+00
              0.341803424613293E+00
              0.586644090386660E+00
              0.727963701918211E+00
             -0.127907156980467E+01
             -0.112071443956140E+00
             -0.478557425526384E+00
             -0.110081353735469E+00
             -0.113733039710244E+00
              0.963109465025909E-01
             -0.246053972167455E+00
             -0.505504432521924E+00
              0.263257708535034E+00
              0.120050137375499E+00
              0.916667570023178E+00
             -0.782905408998348E+00
              0.758800534825578E+00
              0.860731631307999E+00
             -0.182295928768691E+00
              0.130404993903606E+01
             -0.115461979007995E+01
             -0.177468442484498E+01
             -0.120506040358127E+00
             -0.113986519534379E+00
              0.139136644061182E-01
              0.132319059355073E+01
             -0.366619250642830E-01
              0.724115256492034E+00
              0.100112374455380E+01
              0.672273271939469E+00
             -0.885620853198503E-01
              0.104253598071220E+01
             -0.289014133722845E+00
             -0.658607779924314E+00
             -0.650195536009449E+00
              0.160012120340172E+00
              0.630157766705209E+00
             -0.577959655825429E-01
              0.598816485696232E+00
              0.714731596842810E-02
              0.971849092660298E+00
              0.300326209786050E+00
              0.131044527997068E+00
              0.264124876451177E-02
              0.513223100288565E+00
              0.705321525311762E+00
              0.272366785077612E+00
             -0.579524773574391E-01
             -0.924917788592632E+00
              0.511990044250199E+00
              0.355072018449860E+00
              0.587054405792282E+00
              0.527355846867303E+00
              0.620805539838454E+00
             -0.154211058937544E+00
              0.563701279777724E+00
             -0.500018618096439E+00
             -0.351073053987143E-01
             -0.914384981931109E+00
             -0.603453939203559E+00
              0.743146884080271E+00
             -0.152202064656027E+01
              0.430780729767238E+00
              0.241551598674485E+00
              0.147612863008211E+01
             -0.267030100877216E+00
              0.554483428311920E+00
             -0.205877397161878E+00
             -0.846049007459006E+00
             -0.116007941049367E+01
             -0.240688897829878E+00
             -0.156368138423827E+01
              0.166723989202089E+00
             -0.366795683348037E+00
              0.557816108952899E+00
              0.396544834515245E+00
             -0.478730798521951E+00
             -0.502956632075135E+00
              0.739459668795867E+00
             -0.961755924270369E+00
             -0.226217591396995E+00
             -0.282133212289404E+00
              0.440573288031322E+00
              0.494433947852206E-01
              0.696424224035734E-01
             -0.271391928647189E+00
              0.923109915140987E+00
             -0.983205520128057E+00
              0.135249821932886E+00
              0.102322187482424E+01
             -0.611069016935123E+00
              0.552888031265950E-01
              0.522325476786456E-02
             -0.114362092660543E+01
             -0.694722363931768E+00
             -0.469590535019027E-01
              0.521703596457450E+00
              0.579456670534481E+00
              0.834008961221260E-01
             -0.187377119844212E+00
              0.307371855844188E+00
             -0.710744733321931E+00
             -0.683741797279236E-01
             -0.904366896028807E+00
             -0.447052934808737E+00
              0.857477628593949E+00
             -0.523828801126240E+00
              0.118586366249280E+01
             -0.384922445584709E+00
              0.590961810284957E+00
              0.438074429784373E+00
             -0.102831066448003E+01
             -0.457780212946013E+00
              0.156241944587733E+00
             -0.692977404742797E+00
             -0.711903535101745E+00
             -0.151297534157957E+01
             -0.964671552424622E+00
             -0.855543821309901E+00
             -0.774376486070924E+00
              0.115345200386621E-01
              0.402317457636283E+00
              0.170003193674361E+00
              0.449841879865519E+00
             -0.100826729704940E+01
              0.216644606803150E+00
              0.458502833111860E+00
             -0.118444025778597E+01
             -0.994723317786137E+00
             -0.658194143558237E+00
             -0.537175681653914E+00
              0.266265035142099E+00
             -0.441569913644422E-01
             -0.740733719562775E+00
              0.509636708670308E+00
             -0.378811881783205E+00
              0.903997901489527E+00
             -0.150452067614157E+01
              0.107305803157366E+01
             -0.165997315471972E+00
             -0.752215582653176E+00
             -0.482013796872377E+00
             -0.166883623192167E-01
              0.829084200280530E+00
             -0.120246726039850E+01
             -0.223308835042436E+00
             -0.283195537145765E+00
              0.725078157784677E+00
              0.137134284187812E+01
             -0.170927433267219E+01
              0.158345417895986E+01
              0.687076280827933E+00
             -0.131266847088712E+01
             -0.555074176531956E+00
              0.134480440996086E+01
              0.983780302448270E+00
             -0.349880174787668E+00
             -0.125083341597662E+00
              0.300298273457927E+00
              0.131729589268110E+01
             -0.101131326746592E+01
              0.237831136864236E+00
             -0.121314979939530E+00
              0.478863631303913E+00
             -0.121194315453408E+01
             -0.540628112007001E-01
             -0.483793325718545E+00
              0.829522870554205E+00
              0.667721960864948E+00
             -0.151980367428760E+01
             -0.818539898302136E+00
             -0.364637859591404E+00
             -0.726118172994145E+00
             -0.225145838660866E+00
             -0.333832413378186E+00
              0.782218939097826E+00
              0.753182020007872E+00
             -0.524636041724174E-01
             -0.739463870247725E+00
             -0.146594514773837E+01
              0.855291736305361E+00
             -0.806520334380669E+00
             -0.621418392793685E+00
              0.129677368830366E+00
             -0.622370300095301E+00
             -0.698732430549472E+00
             -0.525444744418898E+00
             -0.854502791370902E+00
             -0.416701411479049E+00
             -0.855417836647872E+00
              0.962616211606773E+00
              0.103808541946628E+01
             -0.167557438036146E+00
             -0.371548198661447E+00
              0.449888910933449E-01
              0.723447496450520E+00
             -0.147746120446924E+01
             -0.407832230817315E+00
              0.871751584219920E+00
              0.119834253658584E+01
             -0.197456677626873E+00
              0.193303833220355E+00
              0.894772516034040E+00
              0.260879716521137E+00
              0.147684868229270E-02
             -0.663747945138661E+00
              0.261857400734559E+00
             -0.569511621057152E+00
             -0.174555263558713E+00
             -0.353985089444592E+00
             -0.255704369731769E+00
              0.393599634650599E+00
              0.136892261794360E+01
             -0.115662843003852E+00
              0.374618770128778E-01
             -0.157238930314917E+01
             -0.312089942011930E+00
             -0.624793902503391E+00
              0.129650533766141E-01
             -0.781162194591342E+00
              0.151305568143077E+01
              0.149688330785303E+01
              0.323615422412705E+00
             -0.376456272165941E+00
              0.296460538831587E+00
              0.377111553455189E+00
             -0.788103584983162E+00
             -0.141084359158855E+00
              0.308159645483517E+00
              0.219834201122787E+00
              0.879417302497766E+00
              0.696946816969684E+00
             -0.368229051467239E+00
              0.402202348041519E+00
             -0.166814689244270E+01
             -0.515810019088507E-01
              0.154421716648658E+01
              0.310864020989466E+00
             -0.273639698663022E-01
              0.467515325970769E+00
             -0.401760561686214E+00
              0.153241741698426E+01
             -0.323288366410081E+00
              0.135591227308710E+01
              0.649839276212260E+00
             -0.759098755161876E+00
              0.564984113503784E+00
             -0.484651584830731E+00
             -0.115960917985200E+01
             -0.136130103866043E+00
             -0.939821475994154E+00
             -0.906735622225895E+00
             -0.283389390351401E-01
              0.620811316994768E+00
             -0.211144773008836E+00
             -0.550266107180178E+00
              0.123301943421739E+00
             -0.114172626078682E+01
             -0.685367879403219E-01
             -0.149681748125711E+01
              0.935824699803379E+00
             -0.756584200170076E-01
             -0.838627004427372E+00
             -0.310802403208033E+00
              0.296859206951180E+00
             -0.627947793721259E+00
             -0.764217234526725E+00
              0.153630446095155E+01
             -0.471247540096879E+00
             -0.682779197576231E+00
              0.531551801727008E+00
             -0.340541220897275E+00
              0.949087409466265E+00
             -0.145993839592649E-01
              0.631169398956102E-01
              0.185020122493284E+01
             -0.186459397660580E+00
             -0.655799096319626E+00
             -0.790409548299495E+00
             -0.908521878259560E+00
             -0.634987495304166E+00
              0.507250645153565E+00
              0.495781906843692E+00
              0.483790543017742E+00
              0.128294571951608E+01
              0.732141191627598E-01
              0.374389554438927E+00
             -0.102376549584213E+01
              0.241004287614732E-01
             -0.310648087886499E+00
             -0.469493814348464E+00
             -0.752652146582484E-01
              0.570784969185060E+00
              0.651731333507721E+00
             -0.368710391080365E-01
              0.196817107076511E+00
              0.488995683619499E+00
              0.620527566587581E+00
             -0.388173244469567E+00
             -0.165014235527638E+00
              0.169947519439417E-01
             -0.450175271832775E+00
             -0.853320201428174E-01
             -0.636069710709383E+00
              0.132717000242093E+01
              0.105401870890841E+01
             -0.292398427992518E+00
              0.262669500411982E+00
             -0.891521697066708E-01
             -0.506204870944930E+00
              0.629079732990589E+00
             -0.160325678894209E+00
              0.614732995710995E+00
             -0.835295761207563E+00
              0.303867743033175E+00
             -0.135859786083378E+00
             -0.930801138703844E+00
             -0.414409215985408E+00
              0.411878345989550E+00
             -0.167204825337267E+01
              0.657334084265930E+00
              0.810868980056513E+00
             -0.161296409299078E+00
             -0.119980493357148E+00
             -0.556480332937817E-01
              0.457112997673848E+00
             -0.577095814202915E+00
              0.541594794340385E+00
              0.550936080882928E+00
             -0.161566907309684E+01
             -0.618889471045012E+00
              0.409881390276324E+00
             -0.217893081061630E+00
              0.804801071073735E+00
             -0.105710456028576E+01
             -0.133849755811619E+00
             -0.687611710420871E+00
             -0.221752012044976E+01
              0.135735651667436E+01
             -0.103952343974129E+01
             -0.113787165413413E+01
              0.113050226101366E+00
              0.221622568606497E+01
              0.107926525475303E+00
             -0.530007474040226E+00
             -0.147993189478983E-01
             -0.745264135015784E-01
             -0.150592895675465E+01
             -0.966853983840369E+00
              0.146623119538701E+01
             -0.189908112113214E+00
             -0.633786339167169E+00
              0.862543301603942E+00
             -0.566134954435684E+00
              0.589397089983608E+00
              0.843970397488984E+00
             -0.945275275518251E+00
             -0.482526008904184E+00
             -0.550520498888184E+00
             -0.276302910475900E+00
             -0.349517580705449E+00
             -0.285595258320734E+00
              0.327590714587132E+00
             -0.601393958677134E+00
              0.485017113120199E+00
              0.967540411499312E+00
             -0.151601156803446E+00
             -0.337545271153010E+00
              0.249116188739511E+00
              0.939910186475969E+00
              0.931809306495491E+00
              0.137828419071020E+00
             -0.159607221361299E+00
             -0.167378310535716E+00
             -0.916987684918115E+00
              0.692351108740906E+00
             -0.438457091982104E+00
              0.373629454963481E+00
             -0.234957057349874E+00
              0.463256516050206E+00
              0.293452411044245E+00
             -0.140741532486942E+01
             -0.449990732678671E+00
             -0.134912804785936E+01
             -0.673858229777590E+00
              0.891815150849580E-01
             -0.328583162607944E+00
              0.589544587738436E+00
             -0.482941769042401E+00
              0.466489209076417E-01
              0.126732467944805E+00
              0.124284234993009E+01
              0.639750153507239E+00
             -0.532854920029360E+00
             -0.216840469723993E-01
              0.255838332119547E+00
              0.639138720002549E+00
             -0.308081236164259E-02
              0.959222909671037E+00
              0.489683926452893E+00
              0.154414342994147E+01
              0.754233337956725E-01
              0.109725604130335E+01
             -0.462535895104485E+00
             -0.682527185206530E+00
              0.678543835809693E-01
              0.169467398191026E+00
              0.418148329321697E+00
             -0.297191428082629E+00
             -0.206096962305162E+00
              0.391695033203850E+00
             -0.806632876840239E+00
             -0.999553666431871E+00
              0.135000423837071E+01
             -0.110490975968192E+00
             -0.663446505765473E+00
             -0.859799349735839E-01
             -0.241010043515649E+00
              0.707982302716931E+00
              0.626233711410487E+00
             -0.343619546981609E+00
             -0.141545674386805E-01
             -0.457994388015091E+00
             -0.601912236288799E+00
             -0.434002649296742E+00
             -0.167700326330178E+01
             -0.740285103951610E-02
             -0.113770811950763E+01
             -0.100592088136947E+01
             -0.671159153302793E+00
              0.361427996835161E+00
             -0.672430203852667E+00
              0.395520075713195E+00
             -0.108950915962523E+01
             -0.451407605697618E-03
             -0.726058670812770E+00
              0.114823495041309E+00
              0.133679634681701E+00
              0.579654250521807E+00
             -0.348609832621208E+00
             -0.330420020064762E+00
              0.528805410390612E+00
              0.103694212739859E+01
              0.551553939497568E+00
              0.178771886202986E+00
             -0.126379924309532E+01
             -0.251976843761310E+00
             -0.478753828311815E+00
             -0.107102406771065E+01
              0.744468491834160E+00
             -0.588317459958529E+00
             -0.127688273712228E+00
             -0.456238793767091E+00
             -0.171984006126435E+01
              0.962432221988611E+00
             -0.305919541661995E+00
              0.672959639713020E+00
             -0.127922319438842E+01
              0.112011469935707E+01
              0.959129296405239E-01
             -0.464510994837520E+00
              0.150305274099453E+00
             -0.367198932635667E+00
             -0.111612755541787E+01
              0.304662171161795E+00
              0.621387385057233E+00
             -0.764806314592015E-02
             -0.592867735497208E+00
             -0.251591626308250E+00
              0.346834104448721E+00
              0.615880134879527E+00
              0.107508580410365E+01
              0.395891985920953E+00
             -0.397810611181152E+00
              0.166823980424610E+01
              0.396995323489410E+00
              0.784282240060483E+00
             -0.272487165850108E+00
              0.513651744949341E+00
              0.381634696059753E+00
             -0.106608868333470E+01
             -0.380546915535255E+00
             -0.681538699966999E+00
             -0.672981558627110E+00
             -0.190565467150122E+00
             -0.169919553677744E+00
             -0.756370576066175E+00
             -0.192891266112262E+01
             -0.469409078323571E+00
              0.256399444670091E+00
              0.968003217577440E-01
              0.239377274246513E+00
              0.722016041887675E+00
              0.215626304456191E+00
              0.541441689562324E+00
             -0.758895433446812E+00
              0.748049881455557E+00
             -0.703373754895789E+00
             -0.117540182290436E+01
              0.331802562968463E+00
             -0.699764723133865E+00
             -0.699482420331879E+00
             -0.274489038781200E+01
             -0.136184512746693E+00
              0.143612494022189E+01
              0.722687320682368E+00
             -0.176935819139114E+00
             -0.174339359948851E+00
              0.697458180660362E+00
              0.109950357495311E+01
             -0.675773490939040E+00
             -0.220163022073798E+00
             -0.608057341390812E+00
             -0.581890567343750E+00
             -0.531109925664960E+00
              0.211575073925451E+00
              0.121766942994646E+01
             -0.113045543809133E+01
             -0.929927710210038E+00
              0.544020504820901E-01
             -0.238588280266947E+00
             -0.313573912858424E+00
             -0.155202062075839E+01
              0.104007227798455E+01
              0.354678922464457E+00
              0.136787511408907E+00
              0.901650692853935E+00
             -0.549861363390683E+00
              0.581112393827818E+00
              0.496820146163380E+00
              0.529234951605941E-01
             -0.141939063809543E+00
              0.166879372720752E+00
             -0.262193580941154E+00
              0.875506329328285E+00
             -0.706928138304922E+00
              0.776495814053481E+00
              0.164138539469054E+00
              0.273413907353023E+00
              0.346394428755881E+00
             -0.139332096020229E+01
              0.152705679720808E+00
             -0.113812388888049E+01
             -0.839408412759123E+00
             -0.830105305239868E+00
             -0.880916071192487E+00
              0.163903819425997E-01
              0.305197777630971E+00
              0.849905426012578E+00
              0.135901013810462E+00
              0.248490052707237E+00
             -0.120447321580217E+01
             -0.485997881202864E+00
              0.559084760366382E+00
             -0.322681496755830E-01
             -0.467206407783491E-01
             -0.165420217120984E+00
              0.623688742040860E+00
             -0.156773067271390E+01
              0.229584920088965E+00
              0.384283435763985E+00
              0.684880095869202E+00
              0.646583471613348E+00
             -0.978216647344123E+00
              0.255727824234867E+00
              0.105483225165699E+00
              0.124336289258478E+00
              0.722104995156219E-01
             -0.348390840911464E+00
             -0.722354489637583E+00
              0.296566374238262E+00
              0.101052861788236E+01
             -0.454809406876269E-01
              0.227184037023681E+00
              0.208011760073951E+00
             -0.521963356531578E+00
             -0.537686193370927E+00
             -0.209564611754045E+01
             -0.670519894745833E+00
             -0.976930794525967E+00
             -0.123686289754699E+00
             -0.115715347311745E+01
              0.130818662481694E+01
             -0.573133970490284E+00
             -0.936764166311877E+00
             -0.271136211418460E+01
              0.116485964271054E+01
              0.249209314045804E+00
              0.113542229271406E+00
             -0.104844617934397E+01
              0.778050234527647E-01
             -0.268021259924956E+00
             -0.541537784794011E+00
              0.133306994063259E+00
              0.550758910860660E+00
              0.968820651621853E-01
             -0.331599051622641E+00
              0.431695587494119E-01
              0.157455995563254E-01
              0.211395666176582E+00
             -0.114571330562086E+01
              0.124837057222564E+01
             -0.711755444141110E+00
             -0.450503674612987E+00
             -0.850415201774798E+00
             -0.183818972045969E+01
              0.907425304238720E-01
             -0.954613825315551E+00
             -0.339534201307103E+00
              0.539869976882935E+00
             -0.448725380521799E+00
             -0.168633043529127E+00
             -0.213745099774189E+00
             -0.381073075920456E+00
              0.467617082147260E-01
              0.886186470513510E+00
             -0.888773063498741E+00
              0.175535154030341E+01
             -0.409413824017668E+00
              0.575118506563543E+00
             -0.272422194154998E+00
              0.218562884636761E+00
             -0.210823358470016E+00
              0.781202959762535E+00
              0.109482850762986E+01
              0.312633804522959E+00
              0.813053059301595E+00
             -0.530070427186877E+00
             -0.107293868496428E+00
             -0.423468366737279E+00
              0.108993562581122E+01
              0.944091605561729E+00
              0.692268506071120E+00
             -0.233908971943096E+00
             -0.448932307785181E+00
              0.418409484555563E+00
             -0.483329042628734E+00
             -0.252768482470888E+00
             -0.110833089019980E+00
             -0.592434352845006E+00
              0.858405838857027E+00
             -0.176272430039911E+00
              0.620639429909824E+00
              0.349076733815638E+00
              0.274986198210751E+00
             -0.591635085153779E+00
              0.465528141687632E+00
             -0.238413203893013E+00
             -0.128000032461516E+00
             -0.196847851670574E-01
             -0.852329281828188E+00
              0.134844685712318E+01
             -0.479398981159233E+00
              0.902029142832017E-02
              0.407023352598304E+00
              0.351197069287570E+00
              0.131768032091177E+01
             -0.377972307892134E+00
              0.130272612561511E+01
              0.115651651102474E+01
             -0.162453271455957E+01
              0.134516397549062E+00
             -0.321937939581056E+00
              0.191404074611653E+00
              0.804582234022653E-01
              0.345139876817566E+00
              0.110022939214301E+01
              0.167036366324321E+01
             -0.128293204143072E+01
              0.131953158810899E+01
             -0.170171164997440E+01
             -0.144657737768314E+01
             -0.238462691565970E+00
              0.225110403234678E-01
              0.133765345032261E+01
              0.582110554186848E+00
             -0.259958303116355E+00
             -0.146409638339430E+01
              0.115234949667756E+01
             -0.727401164681941E+00
              0.217424879079857E-01
             -0.802263683336903E-01
              0.223639166159686E+01
             -0.405558415948327E+00
             -0.180826876361559E+01
              0.525785736148540E+00
             -0.278890001159372E+01
              0.225912665584177E+00
             -0.660608730499874E+00
             -0.294774776646336E+00
             -0.454032844587078E+00
             -0.101941616788832E+01
              0.641849519844798E+00
             -0.611626778547511E+00
             -0.220777091421411E+00
             -0.130790844943992E+01
             -0.801905733162593E-01
             -0.915137285288968E+00
             -0.131821796351851E+01
             -0.188411851935396E+01
              0.151316039208012E+00
             -0.611415779908375E+00
              0.122972049766505E+00
             -0.216206723340910E+00
             -0.142093989310107E+01
             -0.109381178247055E+01
             -0.972888177662366E+00
             -0.979173842665343E+00
              0.900206260995040E+00
              0.129453940072823E+00
             -0.839966184647355E+00
             -0.413288541738000E+00
             -0.465094781030865E+00
              0.694717589428465E+00
             -0.544875914683853E+00
             -0.110702156137234E+00
             -0.507622817410853E+00
             -0.685961632632525E+00
             -0.697197882614624E+00
              0.703963179107147E+00
             -0.221206661278845E+00
             -0.156065346241058E+01
              0.135217194937129E+01
              0.792615526070091E+00
              0.690784998676888E-01
             -0.137531385900795E+01
             -0.129173011562238E+01
              0.117027738420667E+00
              0.245986266263927E-01
             -0.579925874908144E+00
             -0.779568650160978E+00
              0.549729398437003E+00
             -0.973369746911938E-01
              0.464681722056095E+00
              0.816347719956998E+00
              0.615571784679993E+00
              0.441008234892332E+00
              0.380471728312628E+00
             -0.385540478634167E+00
             -0.250977452747002E+00
             -0.311254340948404E+00
             -0.650023892360009E+00
             -0.824889287483624E+00
             -0.105864642332307E+01
             -0.627224004604938E+00
             -0.207189914096447E+00
             -0.130604020515341E+01
             -0.263913750173534E+00
              0.584172331638858E+00
             -0.140348962146351E+01
              0.600659493214662E+00
              0.474959423862781E+00
             -0.122335456293268E+01
             -0.966571926957932E+00
             -0.376319577365603E+00
              0.236937796390181E+00
             -0.707871325221907E+00
              0.128820205760439E+01
              0.113795995619848E+01
             -0.132746540824154E+01
              0.756413667504304E+00
              0.624686876921638E+00
              0.170107070557719E+00
              0.339218220440440E+00
             -0.728305284439254E+00
             -0.268424072546764E+00
              0.956844064195987E-01
              0.342504072969892E+00
              0.727032136132474E+00
             -0.938590678957471E+00
             -0.170924241125902E+00
              0.290316586733317E+00
              0.113803490751807E+00
             -0.577425661921537E+00
              0.320881715033222E+00
             -0.442922156853166E+00
             -0.302478838799760E+00
              0.262168978406585E-02
             -0.106313443272522E+01
             -0.126563557547676E-02
             -0.201010952573416E+00
             -0.255569437922166E+00
              0.226290682434881E+00
             -0.919536828816002E+00
              0.981958000384621E+00
             -0.381538521410548E+00
             -0.228909012137480E+01
             -0.148742077459853E+01
              0.608471529553272E+00
             -0.688373876010465E+00
             -0.367864473259715E+00
             -0.426607057680136E+00
             -0.318346606368423E+00
             -0.177764123086595E+01
             -0.482001148514790E-01
             -0.107034709580081E+01
             -0.557033666816249E+00
              0.371792352007605E+00
              0.133842087221818E+01
              0.632357631705714E-01
              0.431927762768534E-01
              0.102849603277081E+01
             -0.956482499246940E+00
              0.504833543184454E+00
              0.113891480562807E+00
             -0.875070376201037E+00
             -0.484011568087893E+00
              0.345102234836460E+00
              0.467575119907031E-01
              0.273148959324683E+00
              0.246708968710410E+00
             -0.404930578138344E+00
             -0.536599496524403E+00
             -0.857261066432301E+00
              0.847691270636445E+00
             -0.116320364929715E+01
             -0.857981430220306E+00
              0.251251687140148E+00
             -0.146746313647471E+01
              0.377813455573246E+00
              0.100866463252919E+01
             -0.188218208373821E+00
              0.308391381222881E+00
             -0.549112697040615E+00
             -0.375265796745491E+00
              0.182164505644364E+00
              0.622911783638766E+00
             -0.635754917985552E+00
              0.401377044013759E+00
             -0.244109021679671E+00
              0.728316712101860E-01
              0.344393974418622E+00
              0.200111880092149E+00
             -0.189158727855786E+00
             -0.156610466247953E-01
              0.237660616075429E+00
              0.477144762883308E+00
             -0.121356447161465E+01
             -0.125609235586595E-01
              0.926994524338941E+00
             -0.154960969080732E+01
              0.570611765478772E+00
             -0.197468949187178E+01
             -0.182796045159836E+00
             -0.250116540822417E+00
             -0.602718082659326E-01
             -0.198420356176690E+00
             -0.482912508069823E+00
             -0.151925881231097E+00
              0.243864355825761E+00
             -0.412294160335578E+00
              0.192300204659364E+00
              0.155067484757519E+01
             -0.100089395587673E+01
             -0.443760173870232E+00
              0.699401885457169E+00
              0.362709886055699E+00
              0.710973873120007E+00
              0.314642135473486E+00
              0.335239655035455E+00
             -0.251753620610335E+00
             -0.851795076772162E+00
             -0.763134061850359E+00
             -0.553115512952527E+00
              0.817934893181369E-01
             -0.721372478092521E+00
             -0.199421802012428E+00
              0.108060412414167E+00
              0.416045580144779E+00
             -0.119787626959964E+00
              0.100381827491013E+01
             -0.108525568315631E+01
             -0.365039094723576E-01
             -0.134289521871040E+00
              0.536863479466937E+00
             -0.752554883712831E+00
             -0.483090244544144E+00
              0.277269509047668E+00
              0.815719817009281E+00
              0.127369861809547E+01
              0.547112675679188E+00
              0.783045026781548E+00
             -0.438414208337602E+00
              0.108289004604566E+01
              0.109004184592043E+01
             -0.499731847638163E-01
              0.558415045560102E+00
              0.660426735821198E+00
             -0.357677586038323E+00
              0.207027661639520E+00
              0.113034905042856E+01
             -0.380996212646194E+00
             -0.139530084185211E+00
             -0.108677703758633E+01
              0.400916482133972E+00
             -0.231421533466436E+00
              0.362518785071861E+00
              0.475442181479262E-01
             -0.681662917917907E+00
              0.794562380291225E+00
              0.681868716537131E+00
             -0.518380593829291E+00
              0.285149418859081E+00
             -0.100819595276263E+01
             -0.938453899616697E+00
              0.425546116181769E+00
             -0.117897969636885E+01
             -0.584579562115095E+00
              0.416786631415764E-01
              0.147504341800161E+01
             -0.378016658226625E+00
             -0.181670561344358E+00
             -0.326630918750242E+00
              0.193751411119493E+01
              0.326699706939054E+00
             -0.721564871564138E+00
              0.120318212957843E+01
              0.107132662006142E+01
              0.562741863028462E+00
              0.136265782950371E+01
              0.146550966586231E+01
             -0.873945338166865E-01
             -0.510019897496060E+00
             -0.458042202054642E+00
              0.460921927586122E+00
              0.661695410853694E+00
             -0.115251066053230E+00
             -0.405401900825717E+00
             -0.991464252323976E+00
             -0.385308792002171E+00
             -0.799191654470981E+00
              0.568257422584519E+00
              0.290070038278876E+00
              0.102570220893429E+01
              0.207632478995413E+00
             -0.407597299834668E+00
             -0.150950885506218E+00
              0.692547640067372E+00
              0.187619123203691E+00
              0.103362362183771E+01
              0.964459143893244E+00
             -0.166670652244401E+00
             -0.137631086234374E+00
             -0.172142965617623E+01
              0.857887855075531E+00
             -0.277768791229231E-01
              0.965642542332867E+00
             -0.425816996845716E+00
             -0.112307175496980E+01
              0.325757034795804E+00
              0.123753075352461E+01
             -0.435566458470051E+00
              0.115325015760676E+01
             -0.123575820960150E+01
             -0.441631191075400E+00
             -0.145775809269067E+01
              0.308035816507515E+00
              0.109847577166239E+00
              0.121786297434528E+00
             -0.106187950324382E+01
              0.157314734281303E+01
              0.919606541260073E+00
              0.107225225221855E+00
             -0.893102992752634E+00
              0.350549058973543E+00
             -0.343919952512032E+00
             -0.237107375634223E+00
             -0.445327327458461E+00
              0.302193108071390E+00
             -0.261348840684908E+00
             -0.315735230280933E+00
              0.394017488581396E+00
              0.402672498819405E+00
             -0.154109395493626E+01
              0.336132250900162E+00
              0.113423653876260E+01
              0.731109107727498E+00
             -0.239100611203850E+00
             -0.143412505556442E-01
             -0.634220046863564E+00
              0.970755338448448E+00
              0.177798228249899E+00
             -0.614440042145956E-01
             -0.959341145290207E-01
              0.187781207890644E+01
             -0.987888383496696E-01
              0.429564651082054E+00
              0.126469799895845E+01
              0.166987493657293E+01
              0.102888333608874E+01
              0.692750963685645E+00
             -0.107490053103627E+01
             -0.792367466573580E+00
              0.623070154026462E+00
              0.505707377977132E-01
              0.529132314772466E+00
              0.224751131509867E+00
              0.110083646119521E+01
             -0.136643431884024E+01
             -0.845906700746287E+00
             -0.183607846989216E+00
             -0.149320270771827E+01
              0.320077020465208E+00
              0.764730356787138E+00
              0.577596492629233E-01
             -0.358155882665099E+00
              0.363388900538943E+00
              0.233454009456202E+01
              0.532077941239661E+00
              0.302682030934717E+00
             -0.829146773160969E+00
             -0.102501712246437E+01
             -0.237975259926865E+00
              0.480781288340513E+00
             -0.100650894057097E+00
              0.424345990509898E+00
              0.600512037683281E+00
             -0.108158498692648E+01
              0.462304234813366E+00
              0.629233047709977E+00
              0.990579956799717E+00
             -0.171914813641053E+00
              0.694016887546365E-01
             -0.121884372252519E+00
             -0.778576347017356E+00
             -0.125732604398318E+01
              0.132615654039307E+01
             -0.171891922806552E+00
             -0.930115843804787E+00
              0.119496589024204E+00
             -0.512150941274646E+00
              0.147649699456217E+01
             -0.379341413135215E+00
             -0.642660500807620E+00
              0.619540551591450E+00
             -0.257630970187715E+00
              0.796715060464028E+00
              0.572603479423428E-02
              0.161335285841056E+01
              0.880679689556058E+00
              0.171785665042938E+00
             -0.668574849504957E+00
              0.484023169653300E+00
             -0.935207840365242E+00
             -0.876539678062236E-01
              0.110745321640157E+01
             -0.436102445237861E+00
             -0.753413659774171E+00
             -0.381964822239913E+00
              0.893278263279225E+00
              0.210306272992779E+00
             -0.141100971354836E+01
              0.589341185112730E+00
              0.136506162487881E+00
              0.180244064979399E+00
             -0.833885849956779E+00
              0.162964460677669E+00
              0.595761606023010E+00
              0.813269673545146E+00
              0.109842631060958E+01
              0.589998189213646E+00
              0.135175403730701E+00
             -0.932675570391892E+00
             -0.721944460933852E+00
             -0.114223221103443E+01
             -0.220321623853218E+00
              0.586448240307108E+00
             -0.175156638042928E-01
              0.899141415407634E+00
             -0.546821714013261E+00
              0.300695879446302E+00
             -0.370655499861245E+00
             -0.456691249387844E+00
              0.100047421990151E+01
              0.940851954101820E-01
              0.105586402864581E+01
              0.925792745975258E-01
              0.355223488294044E+00
             -0.270905859811883E+00
              0.103655128298449E+01
             -0.254941122494152E+00
             -0.135858574835180E-01
             -0.134163550675542E+01
             -0.132497096747368E+00
              0.120268707520231E+01
              0.112961452636314E+01
              0.412621653227133E+00
             -0.257858090334554E+00
              0.683181180736585E-01
             -0.385304204702944E+00
             -0.289973696496530E+00
              0.152366431513130E+01
              0.112170934219280E+00
             -0.481294548075261E+00
             -0.184189544473533E+01
             -0.773887145347978E+00
             -0.644374102159557E+00
             -0.106612486734596E+01
             -0.101893964861160E+01
             -0.122878441104059E+01
             -0.770015823616190E+00
             -0.499738623895402E+00
             -0.810312848188062E+00
              0.760785321116518E+00
             -0.329265527459020E+00
             -0.151609135052109E+01
              0.720986855792975E+00
             -0.569478776370726E+00
             -0.136057300998397E+01
              0.173619770230819E+01
             -0.429943577161225E+00
              0.271858277079896E+00
              0.666329325693919E+00
              0.196220353125848E+00
              0.434128391864003E+00
              0.133635543397643E-01
              0.193412828222733E-01
             -0.211526139234402E+00
             -0.124986370691725E+01
              0.187038743614409E+00
             -0.208690731820498E+01
              0.120902805095173E+01
             -0.692512323796658E+00
             -0.303199512183063E+00
             -0.344578300875222E+00
              0.357673371376092E+00
             -0.288028641316300E+00
              0.501539617092060E+00
             -0.995880912358916E+00
              0.637702091389222E+00
              0.717337187020736E+00
              0.183343771245011E+00
              0.150327297313281E+00
              0.366031340705261E+00
              0.157775516961656E+00
              0.531653333756617E+00
             -0.860432830451763E-01
             -0.123222316308926E+01
              0.167773204456822E+00
             -0.581061510268090E+00
             -0.441933181604846E-01
              0.932029927483192E+00
             -0.138203918956676E+01
              0.274405066200369E-01
              0.498029167318164E-01
              0.159144659102173E+00
              0.530272572776811E+00
             -0.223300399888103E+00
              0.144913404782038E+01
              0.661050127658148E+00
             -0.260216736958967E+00
             -0.171012885016840E+00
              0.100922490432399E+00
              0.135720418217216E+01
             -0.854614142532862E+00
             -0.174572364105442E+01
              0.496382107877994E+00
             -0.129044990401650E+00
             -0.256508047057061E+00
              0.326354950372012E+00
              0.130831206239209E+01
              0.725335346813174E+00
             -0.297580600321944E+00
             -0.920322242800744E+00
             -0.206754837054829E+00
              0.476466450980176E+00
             -0.299365558000409E+00
             -0.130074017936967E+01
             -0.144967289613927E+00
             -0.166127937251957E+01
             -0.873338057208180E+00
              0.147660984766872E+01
             -0.888490332375726E+00
             -0.121803926251734E+01
             -0.920205770025540E+00
             -0.677338917912731E+00
              0.574173998385820E+00
              0.145412862415490E+01
             -0.149531713579624E+00
              0.461628681179042E+00
             -0.333533256042596E+00
             -0.116141568501676E+01
              0.895067564599591E+00
             -0.824610026573991E+00
              0.450820079208157E+00
              0.505151376198641E+00
             -0.260370521758004E+00
              0.663779789825727E+00
              0.676433123896024E+00
              0.203929994556991E+01
             -0.195248287668667E+00
             -0.938503901257866E+00
             -0.114425263896991E+01
             -0.313934089775792E+00
             -0.688114768539898E+00
              0.163050048634816E+01
             -0.780847757943902E+00
              0.167993711279282E+00
              0.548565021492893E-01
             -0.347733885649965E+00
             -0.145453045042752E+01
             -0.115205527284981E+00
              0.172099142915648E+01
              0.351748611890433E+00
              0.134173987181887E+00
             -0.981264152552030E+00
             -0.931780519939950E+00
             -0.287309549297597E+00
              0.782270840402590E+00
             -0.453462435204462E+00
              0.174189466876241E+01
             -0.789641139018229E+00
              0.320477319200855E+00
             -0.261378367019120E+00
             -0.106211014737071E+01
              0.113890671597496E+00
             -0.970272906003775E+00
             -0.126918708090230E+01
              0.170698158062303E+00
              0.239536720324365E-01
              0.837362467882614E+00
              0.454296802285928E+00
             -0.600736514514813E+00
              0.389508586512173E+00
             -0.149153308278408E+01
             -0.828687289134425E+00
              0.160734902270082E+01
              0.786688458924067E-01
             -0.111068177939709E+00
             -0.438100568759705E+00
             -0.116039379436828E-02
             -0.193901799917457E+00
              0.155573767247853E+01
              0.703477704863618E+00
             -0.163183852621479E+00
             -0.248974731417171E-01
             -0.667240481392416E+00
             -0.238349261044524E+00
             -0.108218789889683E+01
              0.885919781409955E+00
              0.111246294632279E+00
              0.146905018249655E+00
              0.303360207197169E+00
             -0.225822894903342E+00
             -0.382588772082972E+00
              0.109753758624226E+00
             -0.189995981834851E+01
             -0.193616108490535E+00
             -0.149262284248330E+00
             -0.110322922063129E+00
              0.867181276230816E+00
              0.109804345246890E+01
              0.300056699849995E+00
             -0.160430010785497E+01
              0.110610722012675E+01
             -0.419666537725959E+00
             -0.638087824687135E+00
             -0.150274766999403E+01
             -0.492353908309301E+00
              0.105591578695288E+01
              0.562790817053372E+00
              0.282971446693979E+00
              0.594576601449216E+00
             -0.957280527488804E+00
             -0.828958857531956E+00
              0.107305699164175E+01
              0.717974344245618E+00
              0.822862457979222E+00
              0.110624722020547E+00
              0.175639994116405E+00
              0.911137275114728E+00
              0.170858092680028E+01
             -0.330140499672183E+00
              0.682113264289843E+00
             -0.448670240686389E+00
             -0.752220202407156E+00
             -0.588430328385913E+00
             -0.554282204915926E+00
             -0.238177769105969E+00
             -0.829469123724989E+00
             -0.348429738616995E+00
             -0.223436251303281E+01
              0.542920068793316E+00
              0.486842733169684E+00
             -0.464190019125639E-01
             -0.640640386390636E+00
             -0.329434323982602E+00
             -0.959482997058586E+00
              0.112353991784688E+00
              0.136906429274315E+01
             -0.318598603302569E+00
             -0.323272665539021E+00
              0.320950159454338E+00
             -0.861353792487477E+00
              0.149653009810772E+01
              0.281461428871209E+00
              0.128196044344362E+00
              0.907227173335439E+00
             -0.835725905333726E-01
              0.101708637431101E+01
              0.332957335424916E+00
             -0.555439966392632E-01
              0.237813620907563E+00
             -0.152759208208322E+00
              0.118554210222244E+01
              0.122813676172896E+00
              0.350360562743218E+00
             -0.147341356140815E+00
              0.177586345910909E+00
             -0.162252914001013E+01
             -0.619342167883609E+00
             -0.842252106281251E+00
              0.890013950131793E+00
             -0.606327366751397E+00
             -0.980286258056748E+00
              0.102298850623585E+01
             -0.247841403277147E+00
              0.727414160509062E+00
             -0.154473093142581E+01
              0.335647440336472E+00
              0.783191575894158E-01
              0.101249888191690E+00
             -0.221535519621235E+00
             -0.107121360870908E+00
              0.860251878492832E+00
              0.494538197128023E-01
             -0.891634011012847E+00
             -0.367399987441771E+00
              0.340367299843769E+00
             -0.200152958561800E+01
             -0.152195058148910E+01
              0.219895205726166E-01
              0.265748297178531E+00
             -0.860613015160415E+00
              0.679427609719685E-02
              0.179474073045304E+01
              0.529329066937281E+00
             -0.937422890828119E+00
              0.132644347653367E+00
             -0.178075304274095E+00
              0.218942306657673E+00
             -0.603201951942858E+00
              0.380258985239620E+00
              0.406300636093422E+00
             -0.150900818023294E+00
              0.193556980646580E+01
             -0.869815421330355E-01
             -0.537619201892429E+00
              0.519408049414521E+00
              0.743361303002098E+00
             -0.568967359535279E+00
             -0.145075122979373E-01
              0.168600104298179E+01
             -0.304725397486187E-01
              0.889909549131753E+00
              0.285080200442790E+00
             -0.133755631170879E+00
             -0.272024754293488E+00
              0.841003891379717E+00
             -0.102053277880955E+01
             -0.453395339059131E-01
             -0.339528697334801E+00
             -0.705939219707002E+00
              0.188786680280848E+00
              0.410063050069039E+00
             -0.117996503068483E-01
             -0.358656558644368E-01
             -0.702923218822702E+00
              0.273538033819345E+00
             -0.270076118596587E-01
             -0.386075368185575E+00
             -0.357363346283946E+00
              0.315960610020123E+00
             -0.130966229801111E-01
             -0.664669422461345E+00
             -0.184095400130099E+01
              0.978026380959167E-01
              0.284185146848943E+00
             -0.818566542117298E+00
             -0.426809542549570E+00
              0.141312486375782E+01
              0.203039458039347E+00
              0.745381296778929E+00
              0.173869535382715E+00
              0.672783715251682E+00
              0.375992628734600E-01
             -0.689866723537101E+00
             -0.174365940835691E+00
              0.990876338173363E-01
              0.523604544601774E+00
              0.131057146936355E+01
              0.849937572396976E+00
              0.437323050041849E-01
              0.183616800407509E+00
              0.104386825669511E+01
              0.480420884116124E+00
             -0.121971179023943E+01
             -0.478893994372706E+00
              0.211073154626189E+00
              0.172451957299049E+00
              0.439787876819011E+00
             -0.893371910692777E+00
              0.935840304978337E-01
              0.696429467187748E+00
              0.845732949207112E+00
             -0.733321328718533E+00
              0.278514106564591E-01
             -0.449454012870127E-01
             -0.360048393251432E+00
             -0.453068114332737E+00
             -0.212280744120076E+00
             -0.184492920979154E+00
              0.187187315805959E+00
              0.722025108577042E+00
             -0.557129896296667E+00
              0.139998304329879E+01
              0.581493708762472E+00
              0.441986308290414E+00
              0.636377481772117E+00
              0.446766980266165E+00
              0.586141789649121E+00
              0.959327085070342E+00
             -0.816773009417552E+00
              0.108591670121268E+01
             -0.195292188548845E+01
              0.547358177970412E+00
             -0.181752792169632E+01
              0.138854436504172E+01
              0.134650236674353E+01
             -0.146210952810170E+00
             -0.817786504742761E+00
             -0.738453343402164E+00
             -0.943818718310403E+00
             -0.112883748673693E+01
              0.934394550204022E+00
              0.743746511609836E+00
              0.420336703505249E+00
              0.465604848793111E+00
              0.749160063931012E+00
             -0.703653604942845E+00
             -0.252755135227169E+00
              0.925514850391970E+00
             -0.205214314485953E+00
              0.850870952681282E+00
              0.132933220635603E+01
             -0.520276836093356E-01
             -0.129803257508639E+01
              0.776806773391101E-01
              0.367869627260087E-01
             -0.178891683360076E+00
              0.585731641732261E-01
             -0.112420098826984E+01
             -0.172526569706090E+00
              0.230878637016327E+00
              0.225000843092718E+00
              0.857742204823070E+00
             -0.715092019922267E+00
              0.926054995293054E+00
             -0.665439875717118E+00
              0.455991533918243E+00
              0.750381500732832E+00
 
 BEEF-vdW xc energy contributions
           1 :   -12.2366077747208     
           2 :    10.1612967660086     
           3 :   -7.19593836198487     
           4 :    4.42353406713696     
           5 :   -2.31337110848498     
           6 :   0.931755577662051     
           7 :  -0.165072823142332     
           8 :  -0.180501381061513     
           9 :   0.308247519584265     
          10 :  -0.376606343040937     
          11 :   0.449743034468288     
          12 :  -0.510170203956557     
          13 :   0.514910132818526     
          14 :  -0.449983849043848     
          15 :   0.335375896543498     
          16 :  -0.205447461486095     
          17 :   9.072660035611158E-002
          18 :  -1.154977756980813E-002
          19 :  -3.026627190549647E-002
          20 :   4.698076957272868E-002
          21 :  -5.449458915870942E-002
          22 :   6.086601008563619E-002
          23 :  -6.495278469320809E-002
          24 :   5.963897374790861E-002
          25 :  -4.056334194781819E-002
          26 :   9.825120540591925E-003
          27 :   2.234068815046442E-002
          28 :  -4.213523941487018E-002
          29 :   4.242383360688784E-002
          30 :  -3.029592622798738E-002
          31 :   -1.57175345686811     
          32 :  -0.979203106648692     

     Writing output data file ./pwscf.save/
 
     init_run     :     73.75s CPU     76.21s WALL (       1 calls)
     electrons    :    519.80s CPU    561.47s WALL (       1 calls)
     forces       :     33.38s CPU     35.55s WALL (       1 calls)

     Called by init_run:
     wfcinit      :      1.44s CPU      1.49s WALL (       1 calls)
     potinit      :     59.50s CPU     61.15s WALL (       1 calls)
     hinit0       :     11.01s CPU     11.14s WALL (       1 calls)

     Called by electrons:
     c_bands      :     78.32s CPU     79.06s WALL (      14 calls)
     sum_band     :     40.32s CPU     48.38s WALL (      14 calls)
     v_of_rho     :    326.57s CPU    349.05s WALL (      15 calls)
     newd         :     18.32s CPU     26.60s WALL (      15 calls)
     PAW_pot      :      1.30s CPU      1.30s WALL (      15 calls)
     mix_rho      :    107.57s CPU    111.71s WALL (      14 calls)
     vdW_kernel   :     33.47s CPU     33.47s WALL (       1 calls)

     Called by c_bands:
     init_us_2    :      1.29s CPU      1.31s WALL (      29 calls)
     regterg      :     76.28s CPU     77.02s WALL (      14 calls)

     Called by *egterg:
     rdiaghg      :      0.02s CPU      0.03s WALL (     130 calls)
     h_psi        :     69.10s CPU     69.13s WALL (     131 calls)
     s_psi        :      1.13s CPU      1.13s WALL (     131 calls)
     g_psi        :      0.26s CPU      0.26s WALL (     116 calls)

     Called by h_psi:
     h_psi:calbec :      1.25s CPU      1.25s WALL (     131 calls)
     vloc_psi     :     66.30s CPU     66.32s WALL (     131 calls)
     add_vuspsi   :      1.17s CPU      1.17s WALL (     131 calls)

     General routines
     calbec       :      1.48s CPU      1.48s WALL (     149 calls)
     fft          :    236.91s CPU    236.94s WALL (    2814 calls)
     ffts         :     45.33s CPU     45.34s WALL (     551 calls)
     fftw         :     61.71s CPU     61.72s WALL (     746 calls)
 
     Parallel routines
 
     PWSCF        :  20m48.45s CPU  22m25.61s WALL

 
   This run was terminated on:  16:46:48  20Dec2022            

=------------------------------------------------------------------------------=
   JOB DONE.
=------------------------------------------------------------------------------=
