
     Program PWSCF v.6.7MaX starts on 16May2022 at  9:24:30 

     This program is part of the open-source Quantum ESPRESSO suite
     for quantum simulation of materials; please cite
         "P. Giannozzi et al., J. Phys.:Condens. Matter 21 395502 (2009);
         "P. Giannozzi et al., J. Phys.:Condens. Matter 29 465901 (2017);
          URL http://www.quantum-espresso.org", 
     in publications or presentations arising from this work. More details at
     http://www.quantum-espresso.org/quote

     Parallel version (MPI), running on     1 processors

     MPI processes distributed on     1 nodes
     Reading input from h2o_ensemble.in
Warning: card &CELL ignored
Warning: card / ignored

     Current dimensions of program PWSCF are:
     Max number of different atomic species (ntypx) = 10
     Max number of k-points (npk) =  40000
     Max angular momentum in pseudopotentials (lmaxx) =  3
     file O.pbe-nl-kjpaw_psl.1.0.0.UPF: wavefunction(s)  2S 2P renormalized
     file H.pbe-kjpaw_psl.1.0.0.UPF: wavefunction(s)  1S renormalized

     **************************************************************************
     Initializing libbeef V0.1.2 with the BEEF-vdW functional.
     Citation: Wellendorff et al., PRB 85, 235149 (2012).
     **************************************************************************


     IMPORTANT: XC functional enforced from input :
     Exchange-correlation= BEEF-VDW
                           (   1   4  43  14   2   0   0)
     Any further DFT definition will be discarded
     Please, verify this is what you really want


     gamma-point specific algorithms are used

     Subspace diagonalization in iterative solution of the eigenvalue problem:
     a serial algorithm will be used

 
     G-vector sticks info
     --------------------
     sticks:   dense  smooth     PW     G-vecs:    dense   smooth      PW
     Sum       29347   29347   7345              3755913  3755913  469583
 


     bravais-lattice index     =            0
     lattice parameter (alat)  =      37.7945  a.u.
     unit-cell volume          =   59821.9811 (a.u.)^3
     number of atoms/cell      =            3
     number of atomic types    =            2
     number of electrons       =         8.00
     number of Kohn-Sham states=            8
     kinetic-energy cutoff     =      60.0000  Ry
     charge density cutoff     =     240.0000  Ry
     scf convergence threshold =      1.0E-06
     mixing beta               =       0.7000
     number of iterations used =            8  local-TF  mixing
     Exchange-correlation= BEEF-VDW
                           (   1   4  43  14   2   0   0)

     celldm(1)=  37.794529  celldm(2)=   0.000000  celldm(3)=   0.000000
     celldm(4)=   0.000000  celldm(5)=   0.000000  celldm(6)=   0.000000

     crystal axes: (cart. coord. in units of alat)
               a(1) = (   1.000000   0.000000   0.000000 )  
               a(2) = (   0.000000   1.076352   0.000000 )  
               a(3) = (   0.000000   0.000000   1.029484 )  

     reciprocal axes: (cart. coord. in units 2 pi/alat)
               b(1) = (  1.000000  0.000000  0.000000 )  
               b(2) = (  0.000000  0.929064  0.000000 )  
               b(3) = (  0.000000  0.000000  0.971360 )  


     PseudoPot. # 1 for O  read from file:
     /users/bkreitz1/quantum-espresso/potentials/O.pbe-nl-kjpaw_psl.1.0.0.UPF
     MD5 check sum: eef08af8b58d9ec80f8fdb78829eb7cf
     Pseudo is Projector augmented-wave + core cor, Zval =  6.0
     Generated using 'atomic' code by A. Dal Corso  v.6.7MaX
     Shape of augmentation charge: PSQ
     Using radial grid of 1095 points,  4 beta functions with: 
                l(1) =   0
                l(2) =   0
                l(3) =   1
                l(4) =   1
     Q(r) pseudized with 0 coefficients 


     PseudoPot. # 2 for H  read from file:
     /users/bkreitz1/quantum-espresso/potentials/H.pbe-kjpaw_psl.1.0.0.UPF
     MD5 check sum: ae98473e6dc62675f0d0baffdab24f65
     Pseudo is Projector augmented-wave, Zval =  1.0
     Generated using 'atomic' code by A. Dal Corso  v.6.7MaX
     Shape of augmentation charge: PSQ
     Using radial grid of  929 points,  2 beta functions with: 
                l(1) =   0
                l(2) =   0
     Q(r) pseudized with 0 coefficients 


     atomic species   valence    mass     pseudopotential
        O              6.00    15.99900     O ( 1.00)
        H              1.00     1.00800     H ( 1.00)

     No symmetry found



   Cartesian axes

     site n.     atom                  positions (alat units)
         1           O   tau(   1) = (   0.4999999   0.5381760   0.5294841  )
         2           H   tau(   2) = (   0.5000001   0.5763522   0.4999999  )
         3           H   tau(   3) = (   0.5000000   0.4999999   0.5000000  )

     number of k points=     1  Gaussian smearing, width (Ry)=  0.0050
                       cart. coord. in units 2pi/alat
        k(    1) = (   0.0000000   0.0000000   0.0000000), wk =   2.0000000

     Dense  grid:  1877957 G-vectors     FFT dimensions: ( 192, 216, 192)

     Estimated max dynamical RAM per process >       2.75 GB

     Initial potential from superposition of free atoms

     starting charge    7.99998, renormalised to    8.00000

     negative rho (up, down):  1.434E-02 0.000E+00


     %%%%%%%%%%%%%%%%%%%%%%%%%%%%%%%%%%%%%%%%%%%%%%%%%%%%%%%%%%%%%%%%%%%%%%%%
     %                                                                      %
     % You are using vdW-DF, which was implemented by the Thonhauser group. %
     % Please cite the following two papers that made this development      %
     % possible and the two reviews that describe the various versions:     %
     %                                                                      %
     %   T. Thonhauser et al., PRL 115, 136402 (2015).                      %
     %   T. Thonhauser et al., PRB 76, 125112 (2007).                       %
     %   K. Berland et al., Rep. Prog. Phys. 78, 066501 (2015).             %
     %   D.C. Langreth et al., J. Phys.: Condens. Matter 21, 084203 (2009). %
     %                                                                      %
     %                                                                      %
     % If you are calculating the stress with vdW-DF, please also cite:     %
     %                                                                      %
     %   R. Sabatini et al., J. Phys.: Condens. Matter 24, 424209 (2012).   %
     %                                                                      %
     %%%%%%%%%%%%%%%%%%%%%%%%%%%%%%%%%%%%%%%%%%%%%%%%%%%%%%%%%%%%%%%%%%%%%%%%


     Starting wfcs are    6 randomized atomic wfcs +    2 random wfcs
     Checking if some PAW data can be deallocated... 

     total cpu time spent up to now is       65.1 secs

     Self-consistent Calculation

     iteration #  1     ecut=    60.00 Ry     beta= 0.70
     Davidson diagonalization with overlap
     ethr =  1.00E-02,  avg # of iterations =  6.0

     negative rho (up, down):  1.044E-02 0.000E+00

     total cpu time spent up to now is       99.4 secs

     total energy              =     -44.89829796 Ry
     estimated scf accuracy    <       0.53672281 Ry

     iteration #  2     ecut=    60.00 Ry     beta= 0.70
     Davidson diagonalization with overlap
     ethr =  6.71E-03,  avg # of iterations =  2.0

     negative rho (up, down):  8.722E-03 0.000E+00

     total cpu time spent up to now is      131.4 secs

     total energy              =     -44.95664007 Ry
     estimated scf accuracy    <       0.05313471 Ry

     iteration #  3     ecut=    60.00 Ry     beta= 0.70
     Davidson diagonalization with overlap
     ethr =  6.64E-04,  avg # of iterations =  2.0

     negative rho (up, down):  1.606E-02 0.000E+00

     total cpu time spent up to now is      163.9 secs

     total energy              =     -44.95194142 Ry
     estimated scf accuracy    <       0.01757888 Ry

     iteration #  4     ecut=    60.00 Ry     beta= 0.70
     Davidson diagonalization with overlap
     ethr =  2.20E-04,  avg # of iterations = 17.0

     negative rho (up, down):  2.247E-02 0.000E+00

     total cpu time spent up to now is      200.4 secs

     total energy              =     -44.95156426 Ry
     estimated scf accuracy    <       0.00429859 Ry

     iteration #  5     ecut=    60.00 Ry     beta= 0.70
     Davidson diagonalization with overlap
     ethr =  5.37E-05,  avg # of iterations =  8.0

     negative rho (up, down):  5.278E-02 0.000E+00

     total cpu time spent up to now is      235.9 secs

     total energy              =     -44.95199075 Ry
     estimated scf accuracy    <       0.00169010 Ry

     iteration #  6     ecut=    60.00 Ry     beta= 0.70
     Davidson diagonalization with overlap
     ethr =  2.11E-05,  avg # of iterations =  9.0

     negative rho (up, down):  5.295E-02 0.000E+00

     total cpu time spent up to now is      270.8 secs

     total energy              =     -44.95200019 Ry
     estimated scf accuracy    <       0.00049711 Ry

     iteration #  7     ecut=    60.00 Ry     beta= 0.70
     Davidson diagonalization with overlap
     c_bands:  1 eigenvalues not converged
     ethr =  6.21E-06,  avg # of iterations = 20.0

     negative rho (up, down):  4.754E-02 0.000E+00

     total cpu time spent up to now is      307.9 secs

     total energy              =     -44.95189312 Ry
     estimated scf accuracy    <       0.00021521 Ry

     iteration #  8     ecut=    60.00 Ry     beta= 0.70
     Davidson diagonalization with overlap
     c_bands:  1 eigenvalues not converged
     ethr =  2.69E-06,  avg # of iterations = 20.0

     negative rho (up, down):  2.991E-02 0.000E+00

     total cpu time spent up to now is      345.3 secs

     total energy              =     -44.95166750 Ry
     estimated scf accuracy    <       0.00007683 Ry

     iteration #  9     ecut=    60.00 Ry     beta= 0.70
     Davidson diagonalization with overlap
     ethr =  9.60E-07,  avg # of iterations = 12.0

     negative rho (up, down):  2.437E-02 0.000E+00

     total cpu time spent up to now is      381.5 secs

     total energy              =     -44.95166619 Ry
     estimated scf accuracy    <       0.00002396 Ry

     iteration # 10     ecut=    60.00 Ry     beta= 0.70
     Davidson diagonalization with overlap
     ethr =  2.99E-07,  avg # of iterations =  9.0

     negative rho (up, down):  2.070E-02 0.000E+00

     total cpu time spent up to now is      416.5 secs

     total energy              =     -44.95166652 Ry
     estimated scf accuracy    <       0.00000892 Ry

     iteration # 11     ecut=    60.00 Ry     beta= 0.70
     Davidson diagonalization with overlap
     c_bands:  1 eigenvalues not converged
     ethr =  1.11E-07,  avg # of iterations = 20.0

     negative rho (up, down):  1.882E-02 0.000E+00

     total cpu time spent up to now is      453.4 secs

     total energy              =     -44.95166978 Ry
     estimated scf accuracy    <       0.00000330 Ry

     iteration # 12     ecut=    60.00 Ry     beta= 0.70
     Davidson diagonalization with overlap
     ethr =  4.13E-08,  avg # of iterations = 13.0

     negative rho (up, down):  1.834E-02 0.000E+00

     total cpu time spent up to now is      489.2 secs

     total energy              =     -44.95167067 Ry
     estimated scf accuracy    <       0.00000212 Ry

     iteration # 13     ecut=    60.00 Ry     beta= 0.70
     Davidson diagonalization with overlap
     ethr =  2.65E-08,  avg # of iterations =  6.0

     negative rho (up, down):  1.803E-02 0.000E+00

     total cpu time spent up to now is      513.9 secs

     End of self-consistent calculation

          k = 0.0000 0.0000 0.0000 (234792 PWs)   bands (ev):

   -25.8050 -13.5094  -9.6299  -7.5528  -1.4030  -0.1830  -0.0186   0.1145

     the Fermi energy is    -6.2974 ev

!    total energy              =     -44.95167252 Ry

     total all-electron energy =      -153.798559 Ry
     estimated scf accuracy    <       0.00000027 Ry
     smearing contrib. (-TS)   =      -0.00000000 Ry
     internal energy E=F+TS    =     -44.95167252 Ry

     The total energy is F=E-TS. E is the sum of the following terms:
     one-electron contribution =     -73.02309396 Ry
     hartree contribution      =      38.25575945 Ry
     xc contribution           =      -9.27364553 Ry
     ewald contribution        =       9.22420043 Ry
     one-center paw contrib.   =     -10.13489291 Ry

     convergence has been achieved in  13 iterations

     negative rho (up, down):  1.803E-02 0.000E+00

     Forces acting on atoms (cartesian axes, Ry/au):

     atom    1 type  1   force =    -0.00001807   -0.00000238   -0.00041301
     atom    2 type  2   force =     0.00000964   -0.00019154    0.00020957
     atom    3 type  2   force =     0.00000843    0.00019392    0.00020344

     Total force =     0.000575     Total SCF correction =     0.000217
     SCF correction compared to forces is large: reduce conv_thr to get better values

     negative rho (up, down):  1.803E-02 0.000E+00

     negative rho (up, down):  1.803E-02 0.000E+00

     negative rho (up, down):  1.803E-02 0.000E+00

     negative rho (up, down):  1.803E-02 0.000E+00

     negative rho (up, down):  1.803E-02 0.000E+00

     negative rho (up, down):  1.803E-02 0.000E+00

     negative rho (up, down):  1.803E-02 0.000E+00

     negative rho (up, down):  1.803E-02 0.000E+00

     negative rho (up, down):  1.803E-02 0.000E+00

     negative rho (up, down):  1.803E-02 0.000E+00

     negative rho (up, down):  1.803E-02 0.000E+00

     negative rho (up, down):  1.803E-02 0.000E+00

     negative rho (up, down):  1.803E-02 0.000E+00

     negative rho (up, down):  1.803E-02 0.000E+00

     negative rho (up, down):  1.803E-02 0.000E+00

     negative rho (up, down):  1.803E-02 0.000E+00

     negative rho (up, down):  1.803E-02 0.000E+00

     negative rho (up, down):  1.803E-02 0.000E+00

     negative rho (up, down):  1.803E-02 0.000E+00

     negative rho (up, down):  1.803E-02 0.000E+00

     negative rho (up, down):  1.803E-02 0.000E+00

     negative rho (up, down):  1.803E-02 0.000E+00

     negative rho (up, down):  1.803E-02 0.000E+00

     negative rho (up, down):  1.803E-02 0.000E+00

     negative rho (up, down):  1.803E-02 0.000E+00

     negative rho (up, down):  1.803E-02 0.000E+00

     negative rho (up, down):  1.803E-02 0.000E+00

     negative rho (up, down):  1.803E-02 0.000E+00

     negative rho (up, down):  1.803E-02 0.000E+00

     negative rho (up, down):  1.803E-02 0.000E+00

     negative rho (up, down):  1.803E-02 0.000E+00

     negative rho (up, down):  1.803E-02 0.000E+00

     negative rho (up, down):  1.803E-02 0.000E+00

     negative rho (up, down):  1.803E-02 0.000E+00
 BEEFens 2000 ensemble energies
             -0.682847494763012E+00
             -0.200428654101468E-01
             -0.147002250792273E+00
              0.473343201930622E+00
             -0.228041449415686E+00
             -0.177015434484246E+00
             -0.494637089766095E+00
             -0.104083939528866E+01
             -0.403444063930755E+00
             -0.435058876203202E+00
             -0.374564498941984E+00
              0.412143918598198E-01
              0.273655359626612E-01
             -0.202668001710857E-01
              0.420218060898787E-01
              0.503213823497854E+00
             -0.232449308639462E+00
             -0.141240459273234E+00
              0.241335152488878E+00
             -0.119405816907939E+01
              0.599783463438716E+00
             -0.217803870715920E+00
             -0.696045127917843E-01
             -0.105333759320583E+00
              0.678520363348234E-02
             -0.784416814113615E-01
              0.962056794439678E+00
             -0.200961963210149E+00
             -0.979782018469990E-01
             -0.590387618110237E+00
              0.784133078678444E+00
             -0.841212725647109E-01
             -0.451804305067225E+00
              0.214663934708121E+00
             -0.311563598717810E-01
              0.279270328642548E+00
              0.269821127680281E-02
              0.173926673970852E-01
              0.363954040958242E+00
             -0.110432465834226E+01
              0.591813692845896E+00
              0.118298301191539E+00
             -0.101587639615738E+00
             -0.334500071074211E+00
              0.127487910123361E+00
             -0.168429332912695E+00
              0.534671986510300E+00
              0.388715477044698E+00
             -0.234839809275122E+00
             -0.341732892468349E+00
             -0.317836488877346E+00
             -0.392071044818854E+00
              0.207994945681551E+00
             -0.571500290261266E+00
              0.162692173675200E+00
              0.650479675121753E+00
              0.777702758519041E+00
              0.350020854021606E+00
              0.197492552044963E+00
              0.327240257582788E+00
              0.974690445691721E+00
              0.214317357912658E+00
             -0.600455507644919E+00
             -0.120694785838008E+00
             -0.312223167000947E+00
              0.679472056084836E+00
             -0.814409830779172E+00
             -0.639728426153540E+00
             -0.333006236539250E+00
             -0.159578988185737E+00
             -0.452347558540995E+00
              0.297337160195967E+00
              0.147551723000936E+00
              0.162014423594010E+00
             -0.409061565648144E+00
             -0.381450167591880E+00
             -0.612613671191483E+00
              0.369750424849127E+00
             -0.353878008870894E+00
              0.318330791021244E+00
             -0.710794446615551E-01
             -0.323589797784678E+00
             -0.578963670821737E+00
             -0.167913186348936E+00
             -0.179755971591179E+00
             -0.178458078279559E+00
              0.418490767624169E+00
              0.799685641220583E+00
             -0.477001951960166E+00
             -0.868031613010343E+00
             -0.202555069948882E+00
              0.119485067209546E+01
             -0.590594615067113E+00
              0.335016470176625E+00
             -0.112105752654899E+00
             -0.666736825447918E+00
              0.306381468564683E+00
              0.352640523377779E+00
             -0.148801062813922E+00
              0.317108870636820E+00
             -0.288175691523326E+00
             -0.623327889780203E+00
              0.105308102419165E+01
              0.490886606513852E+00
              0.255694750594554E+00
              0.132802991277469E+00
              0.216684021566472E+00
              0.885220279782647E+00
             -0.289006083886304E+00
              0.259270631161812E-01
             -0.151120494437907E+01
              0.218543440717713E+00
             -0.725694839193913E+00
              0.131597655999201E+00
              0.228312055709765E+00
             -0.381165066607040E+00
             -0.554078910271993E+00
              0.449320513132312E-01
             -0.323898111453917E+00
              0.457831497417463E+00
             -0.481950186639056E+00
             -0.738820340430273E-01
             -0.415324494232888E+00
             -0.341985042712545E-01
              0.258731730546027E-01
              0.207984475360051E+00
             -0.236309879054453E-02
             -0.790307077863099E-01
              0.692397835624970E+00
              0.985652280176589E+00
              0.523998264379889E+00
              0.745858007962386E+00
             -0.153060520158794E+00
              0.970199712783759E-01
              0.562422602026570E+00
              0.166119397267952E-01
             -0.814709812288443E+00
             -0.453817716704964E+00
             -0.520947137408326E+00
             -0.319838607689464E+00
              0.270703783797674E+00
             -0.130520096317630E+01
             -0.129585194750021E+00
              0.486296935907720E+00
             -0.443358480034489E+00
             -0.330849992397681E+00
              0.586555798380473E+00
              0.533644026806390E+00
             -0.306141014171893E+00
              0.305732129835305E+00
             -0.262682901654243E+00
              0.411422692361717E+00
              0.930936213147118E-01
              0.139125316453830E+00
             -0.894862050005916E+00
             -0.525118680031266E+00
             -0.959165546579293E-01
             -0.249771812504220E-01
             -0.448562122340072E+00
              0.118327067795209E+01
             -0.139636412600147E+00
             -0.297319846581511E+00
              0.437996797337789E+00
             -0.494157948234742E+00
             -0.390438484391667E+00
              0.338221988866969E+00
              0.117517206107354E+00
              0.101853500689550E+00
              0.146755621592813E+00
             -0.115886705466494E+00
              0.125085726653350E+00
              0.639385148948341E+00
             -0.310165439234332E+00
              0.230580567895900E+00
              0.956784399601839E+00
              0.330795522962091E+00
             -0.465819121050242E-01
             -0.203078985644717E+00
              0.165794547986634E+01
             -0.250555372388281E+00
              0.412984019681619E+00
              0.312224531796426E+00
              0.328092661372375E+00
              0.101261505583996E+01
              0.502345324092767E+00
             -0.614741529104090E-01
              0.250354770331636E+00
              0.548004354001554E+00
              0.416509099166821E+00
             -0.648579481356165E+00
              0.101351825243273E+01
             -0.929315104683019E+00
             -0.140934367502305E+00
              0.615029934095175E+00
              0.139280412204228E+00
              0.503478724664053E-01
              0.320661438166864E+00
              0.177831406450475E+00
              0.352434748728805E+00
             -0.675919896590461E+00
              0.440950849923771E-01
             -0.251596308580022E+00
             -0.740383185558273E-01
             -0.184708499068433E-01
             -0.123854500756708E+00
             -0.654402200827935E-01
              0.899882146135723E+00
             -0.549497726408219E-01
             -0.320057591287866E+00
             -0.200435332830905E-01
              0.147744023817755E+00
             -0.681542991645466E+00
             -0.550871473086876E+00
             -0.366192899411482E+00
             -0.670805967192135E+00
             -0.199876304736236E+00
             -0.435751570905185E+00
              0.202588824346510E+00
              0.562373859721255E-02
             -0.134747970729687E+00
             -0.908546136452171E-01
              0.613262332620694E-01
             -0.194272014959207E+00
              0.688377025425013E+00
             -0.922984386164515E+00
             -0.136089442969100E+00
             -0.163632695152951E+00
              0.176392813883363E+00
              0.200964707828726E+00
             -0.546091740610834E+00
             -0.143995514762216E+00
              0.479930330556404E+00
             -0.231987465647536E+00
              0.133962054797007E+00
              0.383325667300497E+00
             -0.250772147837353E-02
              0.124693261592925E+01
             -0.150912708477555E+00
             -0.388837177922267E+00
              0.119531818861924E-01
             -0.296313484493233E+00
              0.571333824692734E+00
             -0.493553879546818E+00
              0.142400642146335E+00
              0.560284722909878E+00
             -0.149087119883812E+00
              0.126527965199467E+01
              0.136680500921652E+01
             -0.765437169113463E+00
              0.610648937412809E+00
              0.229343026422512E+00
             -0.592117808799515E+00
              0.212831839925418E+00
              0.430135764761028E+00
              0.481216800475177E+00
              0.575957346646634E-01
              0.176738221299367E+00
              0.783882775816865E+00
             -0.245777158942851E+00
              0.995016869626510E-01
              0.743340190798917E+00
             -0.395083580670492E+00
             -0.231866039950738E+00
              0.618872974109679E+00
              0.328949147317571E+00
              0.840384530620018E+00
              0.345331783632016E+00
              0.127555943389496E+00
              0.267606530499247E+00
              0.453121380313030E+00
             -0.525310807302257E+00
              0.595013898334238E-01
              0.248395195001961E+00
              0.101516317677191E+00
              0.251432945910675E+00
             -0.657442929826302E+00
              0.360527903999322E+00
             -0.470465620497194E+00
             -0.326837777482453E+00
              0.183735416433830E+00
             -0.115054684280234E+00
              0.623521009127001E+00
             -0.197462312097520E+00
              0.302065784661619E+00
              0.323674535981517E+00
              0.839278040022447E+00
              0.569197635465482E+00
              0.550852328254204E+00
             -0.770082943497905E-01
             -0.102186094807498E+00
             -0.319810760018284E+00
              0.863139520624486E+00
              0.890165234280411E+00
              0.409017181823007E+00
             -0.290010994135853E+00
              0.535443430707438E+00
             -0.324991302434339E-01
              0.213155264156721E+00
              0.734234702732257E+00
             -0.287723422311390E-01
             -0.115486323420545E+00
             -0.257750966507940E+00
             -0.624647232682455E+00
              0.103456285252672E+01
              0.513513295783381E+00
             -0.676830747116575E+00
             -0.217099398581650E+00
              0.277894050255608E+00
             -0.129277037843531E+00
              0.695142355038228E+00
              0.175100465026814E+00
              0.869463565505910E+00
              0.294879268353231E+00
             -0.275896669712600E+00
              0.215102945454860E+00
             -0.741639861386889E-01
             -0.293581694196482E+00
              0.188895121373283E+00
              0.199348235588544E+00
              0.946288163209952E+00
              0.821180580136513E+00
              0.605059758066168E+00
              0.752012946255221E+00
              0.701794445052542E-01
             -0.284302233242638E+00
              0.141319808106546E+00
             -0.369680411966308E+00
             -0.585274966032290E+00
             -0.622165476530776E+00
             -0.336503650632737E+00
             -0.117176440670407E+01
             -0.378373791637359E+00
             -0.920753454511164E+00
              0.202956398266307E+00
             -0.491555616820455E+00
              0.524032330637716E+00
             -0.103174228010666E+01
             -0.319349222050891E+00
              0.462235234158074E+00
              0.236685351464270E+00
             -0.949738921586385E+00
              0.597501769571489E+00
             -0.301212189024245E+00
              0.593143378030932E+00
             -0.323451866741753E+00
             -0.836438343009678E+00
              0.195353695208152E+00
             -0.699819938924191E+00
             -0.738779254168018E-01
             -0.724051450658375E-03
              0.463712540135633E+00
              0.134869696794661E+01
             -0.476843796522544E+00
             -0.409476531819726E+00
             -0.649954881733033E-01
             -0.990896885683665E-01
             -0.860209256593505E+00
             -0.625588677201070E+00
              0.557111297998973E+00
             -0.217062663249884E+00
              0.212507979406205E+00
             -0.532869812117462E+00
             -0.154410449980340E+00
             -0.455500933849118E+00
              0.522374997763026E+00
              0.169608717677589E+00
             -0.262305549153280E+00
             -0.167415024393398E+00
              0.129674527396214E+00
             -0.901823057547788E-01
              0.433806948092940E+00
             -0.292342595176034E+00
              0.847613650845593E-01
              0.349086213556361E+00
              0.157178744576662E+00
             -0.230940387490759E+00
              0.167813925676659E+01
              0.612845888694391E+00
              0.967852175788954E-01
              0.773369185830521E-01
             -0.646546094683552E+00
              0.346900484094396E+00
             -0.822263039948007E+00
             -0.355319647167225E+00
             -0.639717184208765E+00
             -0.189520862820664E+00
              0.624089502873140E+00
             -0.620929707035668E+00
              0.253523803038308E+00
             -0.355965341488025E-01
              0.237169754813447E-01
             -0.353550321590263E+00
             -0.450053934569655E+00
             -0.468528371687418E-01
             -0.400707238487765E+00
             -0.256852381245944E+00
             -0.418285227299679E+00
             -0.641826809784060E-01
             -0.344436528903406E+00
             -0.529735063901920E+00
              0.253912421130779E+00
             -0.156329149958198E+00
              0.237924688539972E+00
              0.105872696774187E+00
             -0.799749877329443E+00
             -0.563332511509394E+00
             -0.506957626508353E+00
              0.367350908193828E+00
             -0.525703317857327E-01
             -0.680736273499313E+00
              0.600008460933011E+00
             -0.460922865041260E+00
              0.603797070814718E+00
             -0.321069634647373E+00
             -0.531377466829051E+00
              0.292145532372983E+00
             -0.780109909262997E+00
             -0.358203135598103E+00
              0.659874998029087E+00
              0.219884795818287E+00
             -0.427764033929398E+00
              0.591776454802226E+00
             -0.171151699004683E+00
             -0.382809245562296E+00
             -0.330534183507636E+00
             -0.562508646897252E+00
              0.257002140983463E+00
             -0.943082877630127E+00
             -0.849184095457443E+00
             -0.707936983342750E-01
             -0.309712378822177E+00
             -0.642201312401831E+00
              0.815207306506625E+00
              0.147086263346808E+01
             -0.266020202012835E+00
             -0.259984739299028E-01
             -0.672195424089485E+00
              0.706313962061172E+00
              0.228677895230621E+00
             -0.195500178894337E+00
             -0.403599885953099E+00
              0.156307180038576E+00
             -0.656722136174094E+00
             -0.120713026476643E+00
             -0.951708213964929E+00
              0.351446321183510E+00
              0.151689830553257E+00
             -0.484779432034808E-01
             -0.999381216220421E-01
             -0.415616407929459E+00
             -0.126784713101710E+00
              0.145051495575697E+01
             -0.170755431346624E+00
             -0.501395651205963E+00
             -0.732333704275883E+00
              0.142325520228404E+00
             -0.392282903458017E+00
              0.838024747242585E-01
              0.349331934312397E+00
              0.505519894195574E-01
              0.378175642574834E+00
              0.183064138018096E+00
              0.639772004606139E+00
              0.294433522536372E+00
             -0.376919066734631E+00
              0.532488592054170E+00
              0.380625485479189E+00
              0.138778147760053E+00
              0.414582168674830E+00
             -0.301757334648670E+00
              0.774292380332207E+00
              0.251922620632886E+00
             -0.363187445003164E+00
             -0.675371306979720E-01
             -0.173172320569731E+00
              0.187599678235484E+00
             -0.297509891864937E+00
             -0.955226981128301E-01
             -0.131215486292798E+00
              0.874996293592366E+00
              0.621036258035069E+00
             -0.732215515245421E+00
             -0.673029757901982E-01
             -0.564029013058984E+00
             -0.157089903999934E+00
             -0.235810909835039E+00
              0.107171982473159E+00
             -0.457526446524695E-01
             -0.293013326105246E+00
              0.151727357052998E+00
             -0.955963282984187E-01
             -0.999011295677973E-01
              0.938862723223505E+00
              0.179593209960677E+00
             -0.876657904559582E+00
             -0.439529488967822E+00
              0.100595508181329E+01
              0.248199622352134E+00
             -0.899389959413845E-01
              0.118131039702692E+01
             -0.209188045814042E+00
             -0.897861720407445E-01
             -0.117823755040966E+00
              0.164084669891742E+00
              0.331055288742107E+00
              0.354688131058742E-01
              0.310155051375524E+00
             -0.139197719252432E+00
             -0.396057635237961E+00
             -0.412794752180984E+00
             -0.529290872800620E+00
              0.460132175415990E+00
              0.165436225471694E+00
              0.407709336287662E+00
              0.173920632798596E+00
              0.961591695987129E+00
              0.204530422332914E+00
             -0.824082305682571E+00
             -0.355631806258245E+00
              0.621789801287309E-01
             -0.305694204604541E+00
              0.676675025770601E+00
             -0.165447328033604E+00
              0.186341495049170E+00
              0.579802321473615E+00
             -0.861009238551281E+00
              0.159892030118507E+01
              0.208578411540654E+00
              0.261884299466024E+00
              0.401666249211222E+00
              0.528772395488302E-01
             -0.380452328766752E-01
              0.361354936403554E+00
             -0.367227387948330E+00
              0.908997900212011E+00
              0.794082381894719E+00
             -0.409048680677125E+00
              0.191900995721639E+00
              0.773787681512792E+00
             -0.242874180424606E+00
              0.204787007098500E+00
              0.388526753790973E+00
              0.469761188609399E+00
             -0.805944162981005E+00
             -0.818401857067563E-01
             -0.316072164161976E+00
             -0.723228379053156E-01
             -0.682949006353257E-01
              0.383477512086436E-01
             -0.178047979747209E+00
             -0.303688629190949E+00
              0.145781602324494E+00
              0.872304573646376E-01
              0.577353960615987E+00
             -0.479632291068530E+00
              0.449893792351699E+00
              0.538094402442944E+00
             -0.136596338607507E+00
              0.834989198151633E+00
             -0.724220975149086E+00
             -0.111490859704814E+01
             -0.614232861193145E-01
             -0.660696107436127E-01
              0.252059481246532E-01
              0.820520478111697E+00
             -0.376296988086697E-01
              0.446951531874507E+00
              0.608032720592104E+00
              0.427094195724480E+00
             -0.446622254600317E-01
              0.674109866252003E+00
             -0.180799636546082E+00
             -0.400514680376605E+00
             -0.438622245267196E+00
              0.831962339867121E-01
              0.416405310638999E+00
             -0.490263717865669E-01
              0.394546250049373E+00
              0.184241389625273E-02
              0.622300004870787E+00
              0.201871313610677E+00
              0.794459645946788E-01
             -0.173077507517343E-01
              0.328661118132435E+00
              0.440295164968404E+00
              0.186572064455743E+00
             -0.332272056980083E-01
             -0.574838368170957E+00
              0.314579169883639E+00
              0.220279884344661E+00
              0.385615646742995E+00
              0.335064711710630E+00
              0.384651769599927E+00
             -0.898939537621666E-01
              0.333892126288633E+00
             -0.313518081121082E+00
             -0.248644346876867E-01
             -0.584552742335500E+00
             -0.379186767028969E+00
              0.466018934958297E+00
             -0.964453037050806E+00
              0.283315200277293E+00
              0.158184908690997E+00
              0.925187581225079E+00
             -0.201895099962823E+00
              0.341777909804893E+00
             -0.136515777107325E+00
             -0.524709822086817E+00
             -0.754100748388460E+00
             -0.134393461492887E+00
             -0.981339071408222E+00
              0.127975739366454E+00
             -0.237406380313683E+00
              0.343824385253175E+00
              0.238812046582164E+00
             -0.287114450505547E+00
             -0.303338202659064E+00
              0.465270370785389E+00
             -0.590934393830536E+00
             -0.136649870269534E+00
             -0.177877074661632E+00
              0.259094208888527E+00
             -0.100434076859557E-04
              0.476219688448110E-01
             -0.179337203105660E+00
              0.582678879815478E+00
             -0.586130264627553E+00
              0.949071933994627E-01
              0.637022636554049E+00
             -0.367756850470670E+00
              0.284713708131226E-01
             -0.191860032276203E-01
             -0.735683971825816E+00
             -0.466758347009631E+00
             -0.426736582360266E-01
              0.318999898499641E+00
              0.352446780268614E+00
              0.568655311585888E-01
             -0.104858853754071E+00
              0.201166395122327E+00
             -0.461159358273217E+00
             -0.295933641617543E-01
             -0.568838723083673E+00
             -0.280264918280784E+00
              0.530438597211506E+00
             -0.330423028440249E+00
              0.728423359088645E+00
             -0.231185847531337E+00
              0.381248094012605E+00
              0.277121081802053E+00
             -0.645765750682163E+00
             -0.301213084439462E+00
              0.893876215369085E-01
             -0.417016355334694E+00
             -0.446696145564682E+00
             -0.936336400995572E+00
             -0.614484164610544E+00
             -0.538179819497718E+00
             -0.480699027408658E+00
              0.111493093398112E-01
              0.234591672081806E+00
              0.862046068338393E-01
              0.261520208291778E+00
             -0.633855127260499E+00
              0.128252314152157E+00
              0.270418227022280E+00
             -0.745184641885474E+00
             -0.637338593464640E+00
             -0.409559638397756E+00
             -0.314051205165046E+00
              0.177589235353700E+00
             -0.145447014023494E-01
             -0.472636513629660E+00
              0.341695619943364E+00
             -0.224608033324899E+00
              0.572448403754658E+00
             -0.938410620818599E+00
              0.653243588646279E+00
             -0.788516420579385E-01
             -0.470926789613552E+00
             -0.304262991290828E+00
             -0.114886584103036E-01
              0.504259466587094E+00
             -0.760616523226091E+00
             -0.142696596219972E+00
             -0.179359862246524E+00
              0.472908235102928E+00
              0.859917107103704E+00
             -0.106553519436677E+01
              0.999890666986919E+00
              0.447992952707568E+00
             -0.822651435844820E+00
             -0.361877620466426E+00
              0.835795232529114E+00
              0.627297157008291E+00
             -0.212377708649587E+00
             -0.761926258217525E-01
              0.175423203058295E+00
              0.808736017593826E+00
             -0.622408191456597E+00
              0.164074604527355E+00
             -0.678568065391640E-01
              0.321534560252068E+00
             -0.765096986085527E+00
             -0.431127142114172E-01
             -0.321287479700467E+00
              0.515796995882612E+00
              0.425277158368797E+00
             -0.948288199815119E+00
             -0.519359683080780E+00
             -0.237775301569835E+00
             -0.432547317416629E+00
             -0.146545530604642E+00
             -0.228204948165118E+00
              0.491990078406679E+00
              0.476206330125793E+00
             -0.510900021348917E-01
             -0.453061657084177E+00
             -0.913897807400274E+00
              0.524657673938355E+00
             -0.517341731501157E+00
             -0.369518966935353E+00
              0.823685083026934E-01
             -0.377408305785397E+00
             -0.441714486680814E+00
             -0.321115963455921E+00
             -0.514484526702149E+00
             -0.263042656352803E+00
             -0.533799188838184E+00
              0.616360221874856E+00
              0.668890299695119E+00
             -0.892181926894029E-01
             -0.240973498427569E+00
              0.143798731019036E-01
              0.447016748311073E+00
             -0.940721638071628E+00
             -0.253910688379046E+00
              0.562728834716827E+00
              0.727887303223915E+00
             -0.145050790601013E+00
              0.125935777844838E+00
              0.555782955581844E+00
              0.166159683509477E+00
             -0.190137321140851E-01
             -0.411061671857444E+00
              0.175330139539255E+00
             -0.362366950967264E+00
             -0.142586434489399E+00
             -0.213759834034739E+00
             -0.170422705820135E+00
              0.231866219998823E+00
              0.865172197324667E+00
             -0.640460128680274E-01
              0.272061971890962E-01
             -0.986723994629239E+00
             -0.196657213900739E+00
             -0.399365814048481E+00
              0.286604862852804E-01
             -0.466378180180021E+00
              0.918828274997581E+00
              0.941551998700487E+00
              0.206483790805012E+00
             -0.219136690785934E+00
              0.172752625824610E+00
              0.260018802861869E+00
             -0.491633291078213E+00
             -0.811089903652924E-01
              0.170575196362326E+00
              0.142375821913473E+00
              0.553211567184533E+00
              0.450552641081007E+00
             -0.232189128969665E+00
              0.274718694095350E+00
             -0.104625804621881E+01
             -0.457860296399839E-01
              0.966339687670594E+00
              0.188724259631527E+00
             -0.329252365034272E-02
              0.299134835050755E+00
             -0.247250077218265E+00
              0.982681035090555E+00
             -0.187382333486256E+00
              0.871795087000729E+00
              0.403119254648001E+00
             -0.474459972661434E+00
              0.352218068475092E+00
             -0.306729929132140E+00
             -0.720119194488185E+00
             -0.831832833430259E-01
             -0.594328559321406E+00
             -0.578238654778683E+00
             -0.194819328425848E-01
              0.370386767412786E+00
             -0.112887725938219E+00
             -0.365419973659605E+00
              0.751975861457632E-01
             -0.729683503122664E+00
             -0.509857298118819E-01
             -0.939981900194952E+00
              0.605145473280537E+00
             -0.484546645838464E-01
             -0.524377215245779E+00
             -0.220518491247154E+00
              0.183777187472801E+00
             -0.376579548566097E+00
             -0.482275977520764E+00
              0.946109216526068E+00
             -0.286374364555830E+00
             -0.458729174534184E+00
              0.324992923624698E+00
             -0.191249812894541E+00
              0.569929976116905E+00
              0.535209880806953E-02
              0.491860985823127E-01
              0.113848120338714E+01
             -0.143048001544207E+00
             -0.402890876589790E+00
             -0.470500811381857E+00
             -0.588405026939419E+00
             -0.391390832720127E+00
              0.314274830217677E+00
              0.289946326858254E+00
              0.301139225334778E+00
              0.805983936502551E+00
              0.337002239560942E-01
              0.221316475683565E+00
             -0.664394042943536E+00
              0.741296249577461E-02
             -0.221452254565759E+00
             -0.300500355575450E+00
             -0.157473177350518E-01
              0.359687824805618E+00
              0.410798887275120E+00
             -0.202477036893855E-01
              0.106239024755173E+00
              0.319214530768381E+00
              0.408899651486246E+00
             -0.231433696479105E+00
             -0.105277932639997E+00
              0.141795473078778E-01
             -0.285846225143894E+00
             -0.765561335752336E-01
             -0.365546167187580E+00
              0.815431179084226E+00
              0.660996578331416E+00
             -0.176184948886680E+00
              0.152133868796820E+00
             -0.494791866354174E-01
             -0.293839078254909E+00
              0.384491395682583E+00
             -0.995662505241217E-01
              0.372477517752764E+00
             -0.532578618118733E+00
              0.189139320762221E+00
             -0.904147152927219E-01
             -0.587386593008749E+00
             -0.265724635350384E+00
              0.256513193917542E+00
             -0.104084436689941E+01
              0.405243248320241E+00
              0.512381001704348E+00
             -0.935166921388031E-01
             -0.680249222962135E-01
             -0.290604623331325E-01
              0.279433178157429E+00
             -0.360307574023633E+00
              0.348914752233232E+00
              0.338986299379064E+00
             -0.105393961468450E+01
             -0.375900649165049E+00
              0.255197677259540E+00
             -0.134255281064388E+00
              0.480271056848661E+00
             -0.656443844725656E+00
             -0.631446553993804E-01
             -0.431062750397763E+00
             -0.137881129313912E+01
              0.849346209648000E+00
             -0.654866897552750E+00
             -0.699983250419639E+00
              0.754984685676733E-01
              0.138794820651159E+01
              0.577980146743609E-01
             -0.312847830626970E+00
             -0.377449957970732E-02
             -0.514307503392422E-01
             -0.959303417884497E+00
             -0.617762758433709E+00
              0.912976878090066E+00
             -0.108093352176521E+00
             -0.403772138162642E+00
              0.558792422481849E+00
             -0.356742979176048E+00
              0.379022306734481E+00
              0.538794972342838E+00
             -0.610341764018768E+00
             -0.298836793004872E+00
             -0.340000540385905E+00
             -0.161660129139318E+00
             -0.230407912922782E+00
             -0.161605106628210E+00
              0.194876412654308E+00
             -0.370673889677967E+00
              0.312028267692459E+00
              0.618875616667583E+00
             -0.115875343042509E+00
             -0.198774842422238E+00
              0.151443754013980E+00
              0.591311347393592E+00
              0.570634403341481E+00
              0.626760954707972E-01
             -0.835810188386561E-01
             -0.921761470727018E-01
             -0.574617881843397E+00
              0.433264916242594E+00
             -0.281654957916883E+00
              0.220450224258530E+00
             -0.157519593453705E+00
              0.300301279586885E+00
              0.180847186311924E+00
             -0.884211455395954E+00
             -0.295447769574126E+00
             -0.844472393126161E+00
             -0.406777541455747E+00
              0.624347702082280E-01
             -0.197935079371203E+00
              0.358497033999373E+00
             -0.298841014456944E+00
              0.215892364910197E-01
              0.816281323454673E-01
              0.799859001725114E+00
              0.408654843718785E+00
             -0.318235485692155E+00
             -0.768630341042043E-02
              0.156286071373474E+00
              0.400916052823544E+00
              0.145495767772319E-02
              0.596594946663857E+00
              0.316619462131933E+00
              0.967794368861945E+00
              0.556109789447252E-01
              0.708086386980111E+00
             -0.281260675182053E+00
             -0.430972651616005E+00
              0.632585582893794E-01
              0.907642654866834E-01
              0.278252155324310E+00
             -0.153311362229288E+00
             -0.140902081909381E+00
              0.243047658563635E+00
             -0.503097361095053E+00
             -0.607650088145241E+00
              0.833715097304360E+00
             -0.731279086991785E-01
             -0.438162535855833E+00
             -0.517791635722102E-01
             -0.155295961148393E+00
              0.415429149633136E+00
              0.396066691890140E+00
             -0.214038096698386E+00
             -0.179212551291963E-01
             -0.293885273362801E+00
             -0.375821813857486E+00
             -0.278669386501031E+00
             -0.104666309220496E+01
             -0.228853730223264E-01
             -0.728211189025325E+00
             -0.624324408781210E+00
             -0.438567894658940E+00
              0.215859500226996E+00
             -0.426922529641765E+00
              0.236098054005408E+00
             -0.668645481984841E+00
             -0.132412654023506E-02
             -0.451027934610703E+00
              0.581949447046279E-01
              0.856579322181124E-01
              0.349402957738961E+00
             -0.217991907075688E+00
             -0.210487101033105E+00
              0.318789729331828E+00
              0.659284411651058E+00
              0.341393734050606E+00
              0.109954513538996E+00
             -0.782983538872358E+00
             -0.150730926227967E+00
             -0.304025984568260E+00
             -0.679645269686075E+00
              0.474969160142523E+00
             -0.367808155274942E+00
             -0.762430401967160E-01
             -0.278930069724335E+00
             -0.109013187237445E+01
              0.599143755440135E+00
             -0.193526913352537E+00
              0.428222950236755E+00
             -0.800445284110415E+00
              0.700238697225119E+00
              0.507067282973734E-01
             -0.302021581225618E+00
              0.775324601656600E-01
             -0.244778491800639E+00
             -0.725076928200904E+00
              0.194046442267765E+00
              0.360081860129561E+00
              0.487432448601322E-02
             -0.368579071455396E+00
             -0.145951190734522E+00
              0.211224851080611E+00
              0.373401430800962E+00
              0.681661019219431E+00
              0.258886740172583E+00
             -0.247215881309024E+00
              0.101244954404599E+01
              0.263234429780693E+00
              0.476076087332060E+00
             -0.163725037828775E+00
              0.322834045669138E+00
              0.222891217737002E+00
             -0.675532319260990E+00
             -0.234547204223468E+00
             -0.420728409504489E+00
             -0.398359345554029E+00
             -0.106745998796567E+00
             -0.123577043984587E+00
             -0.453553231543649E+00
             -0.122426924750841E+01
             -0.295998531276740E+00
              0.175603369177018E+00
              0.549061868966110E-01
              0.129296917509063E+00
              0.468824911837473E+00
              0.153924428963044E+00
              0.335743840070008E+00
             -0.483731212701084E+00
              0.478495493640249E+00
             -0.454280060113938E+00
             -0.755628488570005E+00
              0.192632135202377E+00
             -0.423412136653172E+00
             -0.449364606234739E+00
             -0.172561682330572E+01
             -0.932096753646576E-01
              0.894824140699921E+00
              0.466180768344725E+00
             -0.116565233549412E+00
             -0.103835688487198E+00
              0.399099403655692E+00
              0.692506139952468E+00
             -0.428181512907901E+00
             -0.130383057370225E+00
             -0.369998193435578E+00
             -0.373656305618086E+00
             -0.346307584038974E+00
              0.148615681679396E+00
              0.775458891834739E+00
             -0.717363170116006E+00
             -0.578516228210515E+00
              0.260875406141592E-01
             -0.139235946884694E+00
             -0.206002795791428E+00
             -0.983412023222192E+00
              0.630355564568422E+00
              0.235844557641101E+00
              0.700114184104089E-01
              0.563897103545672E+00
             -0.335427181871925E+00
              0.365348090533101E+00
              0.309736292974873E+00
              0.481876223942082E-01
             -0.903546611825465E-01
              0.118035103631818E+00
             -0.160352438871916E+00
              0.526629177009220E+00
             -0.457928851297452E+00
              0.472333493213867E+00
              0.106288613198007E+00
              0.161649705134172E+00
              0.224915127617491E+00
             -0.871028722925701E+00
              0.853103985396224E-01
             -0.712027747762446E+00
             -0.533364717846929E+00
             -0.527978453456295E+00
             -0.537993724027189E+00
              0.237728025059614E-01
              0.179173217586936E+00
              0.526422606008953E+00
              0.915897039672060E-01
              0.153537729015499E+00
             -0.763841454997903E+00
             -0.308119281013525E+00
              0.352952914109770E+00
             -0.235216212515243E-02
             -0.206984603883607E-01
             -0.100109404142848E+00
              0.395019445296205E+00
             -0.991072023062964E+00
              0.143445236379640E+00
              0.255576312143128E+00
              0.437150197809577E+00
              0.410735760056614E+00
             -0.616806842377913E+00
              0.147278405965016E+00
              0.647328941944243E-01
              0.795996228312159E-01
              0.248521937054305E-01
             -0.229554434230686E+00
             -0.435546890395239E+00
              0.178012955383040E+00
              0.643726301961709E+00
             -0.530899354179315E-01
              0.134025050427417E+00
              0.126089141575670E+00
             -0.320010898534333E+00
             -0.319704948518107E+00
             -0.130028606211301E+01
             -0.434678375910214E+00
             -0.596063010998295E+00
             -0.908724512544588E-01
             -0.718219172087427E+00
              0.829616127426639E+00
             -0.356485403150452E+00
             -0.581996828461223E+00
             -0.171534051932492E+01
              0.733953444261318E+00
              0.154957386487861E+00
              0.322088656261228E-01
             -0.658702775224108E+00
              0.547426840723046E-01
             -0.161833520268776E+00
             -0.341539297101059E+00
              0.747600298107460E-01
              0.344378277953892E+00
              0.693651742070625E-01
             -0.191331502265109E+00
              0.105994383435686E-01
              0.675117184437468E-02
              0.149166473018870E+00
             -0.719312275552787E+00
              0.772782062899736E+00
             -0.444473558019228E+00
             -0.280732382751567E+00
             -0.507724330650195E+00
             -0.112505816669242E+01
              0.613027595958935E-01
             -0.571596997751672E+00
             -0.231064893758585E+00
              0.348471249098422E+00
             -0.267452612510283E+00
             -0.829408075246372E-01
             -0.125680347353121E+00
             -0.265440119512538E+00
              0.205680450584997E-01
              0.559934357171999E+00
             -0.574767642734181E+00
              0.108046437724931E+01
             -0.242158973693899E+00
              0.371772940959051E+00
             -0.143116730107259E+00
              0.145153544611001E+00
             -0.134199939844646E+00
              0.496225963836061E+00
              0.695336694546278E+00
              0.195497258974772E+00
              0.545741888777801E+00
             -0.346935462759797E+00
             -0.530956634652536E-01
             -0.277982281375428E+00
              0.687568355884694E+00
              0.600547012276520E+00
              0.441423314207925E+00
             -0.153412467419070E+00
             -0.286172408322196E+00
              0.262873485873334E+00
             -0.291767936157190E+00
             -0.162782983844814E+00
             -0.743747556903578E-01
             -0.360247344956398E+00
              0.548048455264999E+00
             -0.102319326858946E+00
              0.390401090273907E+00
              0.196754864123065E+00
              0.179749464666952E+00
             -0.375183368173592E+00
              0.316892568238207E+00
             -0.151230862344574E+00
             -0.897400952447978E-01
             -0.141110991634354E-01
             -0.553888981672510E+00
              0.855847979960142E+00
             -0.308973014550566E+00
              0.127284813359232E-01
              0.244161765927211E+00
              0.215788014188935E+00
              0.817325060771905E+00
             -0.237297348769338E+00
              0.826807305786062E+00
              0.734343475170302E+00
             -0.104136696567095E+01
              0.889285182072657E-01
             -0.205220567246022E+00
              0.113134954297032E+00
              0.575979632328167E-01
              0.197203146452721E+00
              0.687866864182887E+00
              0.101823560215400E+01
             -0.822976479741431E+00
              0.839423131464928E+00
             -0.105017227654136E+01
             -0.883304893762247E+00
             -0.140312515354811E+00
              0.163217009487733E-01
              0.829550272688581E+00
              0.385849558908353E+00
             -0.180027527263691E+00
             -0.941616198801053E+00
              0.722027064982807E+00
             -0.469217689098921E+00
              0.492648953631303E-02
             -0.445533081379142E-01
              0.140096383192965E+01
             -0.265105257183709E+00
             -0.113724998716915E+01
              0.329460204332378E+00
             -0.174291586299792E+01
              0.143848767465285E+00
             -0.412056183077110E+00
             -0.181699820498684E+00
             -0.285998454872342E+00
             -0.633992325966065E+00
              0.410112100233162E+00
             -0.373382228447015E+00
             -0.121461421628899E+00
             -0.829049997913792E+00
             -0.529692832936761E-01
             -0.559791181064319E+00
             -0.822687594711869E+00
             -0.122587913097921E+01
              0.106125336460416E+00
             -0.364955482556869E+00
              0.403348451364920E-01
             -0.124165829013201E+00
             -0.891053235973756E+00
             -0.677640151456392E+00
             -0.613012404133428E+00
             -0.597213615130060E+00
              0.568340481946470E+00
              0.974561361843629E-01
             -0.516126455764591E+00
             -0.250404825532828E+00
             -0.287065521676110E+00
              0.423492984401004E+00
             -0.350781329406387E+00
             -0.892965823180960E-01
             -0.298014550082965E+00
             -0.431897227385834E+00
             -0.426000579412075E+00
              0.443653817358251E+00
             -0.142048443229459E+00
             -0.968629637447839E+00
              0.859475737048018E+00
              0.502581226825364E+00
              0.547755801190268E-01
             -0.848164868936636E+00
             -0.818367816495121E+00
              0.920445250719011E-01
              0.282895425463030E-01
             -0.361113948482277E+00
             -0.506167036911453E+00
              0.366658736719360E+00
             -0.649973612904606E-01
              0.289321444090056E+00
              0.513365792244656E+00
              0.394751166978330E+00
              0.286458340983435E+00
              0.241943684477570E+00
             -0.246604859277527E+00
             -0.148524191003919E+00
             -0.189274893593858E+00
             -0.400757524676024E+00
             -0.528298414071728E+00
             -0.673955271397360E+00
             -0.399340899749773E+00
             -0.122189766354292E+00
             -0.844024383291535E+00
             -0.138868688794144E+00
              0.349021724113214E+00
             -0.845673464273433E+00
              0.355207768634654E+00
              0.282599109932737E+00
             -0.754785302311665E+00
             -0.610653189578956E+00
             -0.225594318753465E+00
              0.161167865475144E+00
             -0.442462321811636E+00
              0.799332870919060E+00
              0.705845426783612E+00
             -0.833120154538999E+00
              0.501738217307045E+00
              0.394148070546631E+00
              0.108682677154669E+00
              0.221792044205412E+00
             -0.454562420054221E+00
             -0.166419154263173E+00
              0.465465265547165E-01
              0.208379666832282E+00
              0.466312575448206E+00
             -0.596605122139744E+00
             -0.931968677072126E-01
              0.188080423637195E+00
              0.380283188285695E-01
             -0.356466956505766E+00
              0.204126011126329E+00
             -0.287681381899119E+00
             -0.191575053961589E+00
              0.139343263978229E-01
             -0.666961063143792E+00
              0.578330799879012E-03
             -0.161315493774826E+00
             -0.150905739187362E+00
              0.111385775733759E+00
             -0.586202059137880E+00
              0.600353542887225E+00
             -0.251103692539987E+00
             -0.141961216741991E+01
             -0.935814659318272E+00
              0.389460879349554E+00
             -0.407388424168130E+00
             -0.224713325503690E+00
             -0.282544503216867E+00
             -0.189110298322074E+00
             -0.111109826278649E+01
             -0.534261616477005E-01
             -0.676022517819352E+00
             -0.331684070381320E+00
              0.253349291424641E+00
              0.825168595394878E+00
              0.287817110223459E-01
              0.213574982373710E-01
              0.639394663507622E+00
             -0.571168640486304E+00
              0.330518959326981E+00
              0.778940472434242E-01
             -0.529149528845874E+00
             -0.275812982531142E+00
              0.223523024296523E+00
              0.242681861258480E-01
              0.159615103791238E+00
              0.157628986978759E+00
             -0.249937797516250E+00
             -0.317777944143540E+00
             -0.535115444440113E+00
              0.523838193695406E+00
             -0.723428526260721E+00
             -0.533277982003939E+00
              0.155657890703205E+00
             -0.934702818136589E+00
              0.222596482872417E+00
              0.618378797648138E+00
             -0.110867699461375E+00
              0.168202096143057E+00
             -0.325833663743798E+00
             -0.227865655190406E+00
              0.108273343810324E+00
              0.389772209190089E+00
             -0.401125364230316E+00
              0.260861000380329E+00
             -0.152407628053423E+00
              0.101324347243219E-01
              0.235252808262067E+00
              0.155302833748464E+00
             -0.105098729673487E+00
             -0.106216876975358E-01
              0.166465330777961E+00
              0.296682928211188E+00
             -0.757337100205246E+00
              0.905547933037809E-02
              0.587370809278545E+00
             -0.994493726939019E+00
              0.359612073168235E+00
             -0.124857676029052E+01
             -0.105692671504663E+00
             -0.158597237313100E+00
             -0.525869696192398E-01
             -0.110630311363033E+00
             -0.307033215832146E+00
             -0.705384507118740E-01
              0.165905931936519E+00
             -0.242715695728866E+00
              0.125570918752539E+00
              0.967394580033434E+00
             -0.638704522678828E+00
             -0.282340645963087E+00
              0.423982230711665E+00
              0.233464491577209E+00
              0.435027742665665E+00
              0.176181913186637E+00
              0.243604867347207E+00
             -0.163025605617389E+00
             -0.535307943147334E+00
             -0.479401282976621E+00
             -0.314846278882319E+00
              0.401448117040886E-01
             -0.448393182936100E+00
             -0.125122401134846E+00
              0.690757087760059E-01
              0.254218736629830E+00
             -0.761313865930171E-01
              0.624302237906930E+00
             -0.646955904750540E+00
             -0.365690780486743E-01
             -0.843259437083969E-01
              0.330825275406196E+00
             -0.479382955744248E+00
             -0.303690948677661E+00
              0.203840704263278E+00
              0.535037870261497E+00
              0.780409693163686E+00
              0.364915601198612E+00
              0.484063580584863E+00
             -0.282536271826910E+00
              0.680691139473356E+00
              0.684050320926838E+00
             -0.514917120330933E-01
              0.367864432170538E+00
              0.419413132687765E+00
             -0.222577616489186E+00
              0.105700283307153E+00
              0.708010454577518E+00
             -0.254966490839363E+00
             -0.108423882981526E+00
             -0.689687591036224E+00
              0.261250019152545E+00
             -0.129698204916360E+00
              0.218978481260709E+00
              0.445741922889829E-01
             -0.430839966157999E+00
              0.508574999671322E+00
              0.430120736905084E+00
             -0.308069023355968E+00
              0.173066059353629E+00
             -0.622594435246472E+00
             -0.586916128304273E+00
              0.260528456851965E+00
             -0.739705353311556E+00
             -0.354697525212319E+00
              0.409327518615807E-01
              0.922850905667704E+00
             -0.225242930708812E+00
             -0.115425072157470E+00
             -0.187687995970368E+00
              0.122386973432998E+01
              0.208475705575355E+00
             -0.443868112153848E+00
              0.746046599978774E+00
              0.672480427986611E+00
              0.352799569492025E+00
              0.847721700167623E+00
              0.893615104761095E+00
             -0.743447297551438E-01
             -0.325923199236282E+00
             -0.313045123047143E+00
              0.279713821071493E+00
              0.405798071845378E+00
             -0.679107091413820E-01
             -0.248260035995124E+00
             -0.629377267528869E+00
             -0.259300849204147E+00
             -0.499935735657278E+00
              0.343327618417109E+00
              0.176464461158627E+00
              0.634585350956748E+00
              0.113401181618948E+00
             -0.262546471005899E+00
             -0.905500007426225E-01
              0.437628985163923E+00
              0.124831171307390E+00
              0.632763745752360E+00
              0.615312780950289E+00
             -0.117585925270922E+00
             -0.786482541411097E-01
             -0.105692174822010E+01
              0.543998200281673E+00
             -0.351218541241813E-01
              0.591226279917648E+00
             -0.258103909830259E+00
             -0.693943892340697E+00
              0.199435955455024E+00
              0.765441354957681E+00
             -0.275168590823381E+00
              0.735403791034410E+00
             -0.777891562001572E+00
             -0.270283445739578E+00
             -0.899847681216915E+00
              0.210576532035025E+00
              0.869841859706613E-01
              0.583547819634962E-01
             -0.661472248356078E+00
              0.967509154697145E+00
              0.577263887024209E+00
              0.703334831931501E-01
             -0.529441039435082E+00
              0.223703338187608E+00
             -0.238064360684244E+00
             -0.135782667202294E+00
             -0.261837825481809E+00
              0.199244357375704E+00
             -0.143960205034054E+00
             -0.197405883806384E+00
              0.240568711552144E+00
              0.251541890863257E+00
             -0.959277546466337E+00
              0.207728395601571E+00
              0.708435978336324E+00
              0.458255981999508E+00
             -0.156803336859009E+00
              0.601895764370008E-02
             -0.400186670281978E+00
              0.614299783411501E+00
              0.126511632674942E+00
             -0.501781880119463E-01
             -0.579837296699939E-01
              0.117975239178671E+01
             -0.420893533722042E-01
              0.298092109726912E+00
              0.781619464186316E+00
              0.105724860208272E+01
              0.649350984497923E+00
              0.448750944278032E+00
             -0.657900883523888E+00
             -0.494214924731990E+00
              0.387396948689087E+00
              0.124464333404379E-01
              0.331724212343970E+00
              0.146765665954694E+00
              0.682457965011153E+00
             -0.856198138556549E+00
             -0.531694748819142E+00
             -0.106059154359232E+00
             -0.930718990220547E+00
              0.188693694423746E+00
              0.455219090059811E+00
              0.671022908346233E-01
             -0.229492821510813E+00
              0.234712786579629E+00
              0.148117106979822E+01
              0.322887559637087E+00
              0.184111040726868E+00
             -0.529372700529084E+00
             -0.662597877482202E+00
             -0.159676637103231E+00
              0.296414158031507E+00
             -0.621081090641997E-01
              0.252326377097386E+00
              0.374311272368811E+00
             -0.694111961826470E+00
              0.286675969662191E+00
              0.433863291143745E+00
              0.634550412776822E+00
             -0.104946219655783E+00
              0.247185335239957E-01
             -0.794121253468845E-01
             -0.500302475196191E+00
             -0.787495753744922E+00
              0.845796848640296E+00
             -0.100470085266080E+00
             -0.596166196455959E+00
              0.578763649700043E-01
             -0.313502076592574E+00
              0.936844071387887E+00
             -0.233274750261183E+00
             -0.397257556708686E+00
              0.379253526669381E+00
             -0.151546921089796E+00
              0.493807526326016E+00
             -0.194640915602236E-01
              0.103088822164372E+01
              0.533210347915358E+00
              0.798602853376710E-01
             -0.411034998389657E+00
              0.294039815677490E+00
             -0.588406101744422E+00
             -0.626407181985447E-01
              0.696963299336520E+00
             -0.272977825784305E+00
             -0.479385322447262E+00
             -0.231391462267156E+00
              0.568760169287903E+00
              0.138116167648643E+00
             -0.897354604764818E+00
              0.370409181551079E+00
              0.107832794376808E+00
              0.104401766409054E+00
             -0.528213137883522E+00
              0.952675852009071E-01
              0.378544110186294E+00
              0.530334451747166E+00
              0.675190088611377E+00
              0.360159778238940E+00
              0.842736177207775E-01
             -0.573218648428033E+00
             -0.458555240284491E+00
             -0.742197127382640E+00
             -0.117153374547013E+00
              0.369767061704494E+00
             -0.215341611402866E-01
              0.574290001766595E+00
             -0.339144683846166E+00
              0.191010212426803E+00
             -0.214314516834826E+00
             -0.284573806477512E+00
              0.623250299380210E+00
              0.651202971163238E-01
              0.650304236697858E+00
              0.571910507037368E-01
              0.237063941576474E+00
             -0.168587652135325E+00
              0.652903495299655E+00
             -0.141263605663532E+00
             -0.148688857304310E-01
             -0.844719655048279E+00
             -0.930592275305990E-01
              0.764448426224194E+00
              0.729526501283252E+00
              0.245337368330380E+00
             -0.148334527263162E+00
              0.293667039613252E-01
             -0.228545341651863E+00
             -0.147062852569084E+00
              0.946334621294343E+00
              0.587313765369686E-01
             -0.284775999683354E+00
             -0.116951636689193E+01
             -0.515689899620877E+00
             -0.402518661660417E+00
             -0.678615616504872E+00
             -0.636722775538307E+00
             -0.780899928644259E+00
             -0.482360775632956E+00
             -0.337120845716291E+00
             -0.497583958424387E+00
              0.481664265165533E+00
             -0.232671766515951E+00
             -0.100344090973564E+01
              0.460231536834365E+00
             -0.351712677601258E+00
             -0.854083632895128E+00
              0.109245399299773E+01
             -0.259669191344630E+00
              0.185970416202172E+00
              0.434879970027964E+00
              0.968590570800298E-01
              0.261249075463745E+00
              0.734067179550491E-02
              0.932769035155812E-02
             -0.129117720297859E+00
             -0.774821380210967E+00
              0.117001581019931E+00
             -0.133558323439732E+01
              0.735330822312914E+00
             -0.434666540491885E+00
             -0.175269894628730E+00
             -0.206828447795284E+00
              0.206919285456785E+00
             -0.195752546090750E+00
              0.325515623500912E+00
             -0.613566518607410E+00
              0.414449024840601E+00
              0.436332595065211E+00
              0.138456768548427E+00
              0.892218510249312E-01
              0.226939640481618E+00
              0.846390597378797E-01
              0.349967778167955E+00
             -0.631524457809367E-01
             -0.733895126487740E+00
              0.105697865918263E+00
             -0.354035086573426E+00
             -0.194348419652162E-01
              0.564761879416121E+00
             -0.880595009341411E+00
              0.117079458642895E-01
              0.262656593238826E-01
              0.988673497424912E-01
              0.337593836783621E+00
             -0.146217276532596E+00
              0.914315143488750E+00
              0.440523981133267E+00
             -0.171506152876231E+00
             -0.120657256452974E+00
              0.535615641984601E-01
              0.860849983313203E+00
             -0.548817103603964E+00
             -0.110711002699699E+01
              0.311528024389416E+00
             -0.757985354352670E-01
             -0.152922753528148E+00
              0.199643649951416E+00
              0.828998551886699E+00
              0.462663294010784E+00
             -0.193600714083203E+00
             -0.570181630323131E+00
             -0.118660609866896E+00
              0.302603559669836E+00
             -0.177152944932343E+00
             -0.815513220981362E+00
             -0.764574017117010E-01
             -0.102693728372280E+01
             -0.535463201063616E+00
              0.910353456018896E+00
             -0.550829325638897E+00
             -0.752377162396141E+00
             -0.585306628841137E+00
             -0.418427642321653E+00
              0.353875035828343E+00
              0.905665809897065E+00
             -0.796718643330854E-01
              0.293263460572929E+00
             -0.196838813563426E+00
             -0.723033877342336E+00
              0.566369048333117E+00
             -0.508861496696630E+00
              0.300506653964908E+00
              0.329903764592619E+00
             -0.150691153462710E+00
              0.434888458892956E+00
              0.434734208657915E+00
              0.124715638573909E+01
             -0.141705522895145E+00
             -0.559982858603739E+00
             -0.719472551473882E+00
             -0.180877392699179E+00
             -0.403908697576279E+00
              0.105159255651733E+01
             -0.495840700263924E+00
              0.990734884070334E-01
              0.489256948900936E-01
             -0.230245178090283E+00
             -0.891305298560415E+00
             -0.733957440483124E-01
              0.107788640209289E+01
              0.195256634763413E+00
              0.868661965029283E-01
             -0.589813061896247E+00
             -0.587327185134734E+00
             -0.157429808448858E+00
              0.497837751137177E+00
             -0.279020964123920E+00
              0.110435208137064E+01
             -0.474418713845476E+00
              0.191512180794540E+00
             -0.192176830340202E+00
             -0.673499677449571E+00
              0.645967429209060E-01
             -0.605084009781761E+00
             -0.798782697038341E+00
              0.888375226209028E-01
              0.149164784744913E-01
              0.520844692692585E+00
              0.273894664775399E+00
             -0.374242614327183E+00
              0.250851680095598E+00
             -0.910613154049986E+00
             -0.534337672178295E+00
              0.101350564897602E+01
              0.643965441072822E-01
             -0.933344402734591E-01
             -0.287415000918779E+00
              0.426026158704484E-02
             -0.110648163735291E+00
              0.956525520617681E+00
              0.438115086288606E+00
             -0.119624156535346E+00
             -0.403877346913646E-01
             -0.429224542069099E+00
             -0.164643023375432E+00
             -0.693228205554010E+00
              0.552279096796107E+00
              0.697763664065472E-01
              0.107350003220128E+00
              0.175009980178997E+00
             -0.129274402111552E+00
             -0.230977389577623E+00
              0.354107105952084E-01
             -0.117156564089445E+01
             -0.133597652832384E+00
             -0.825078405471027E-01
             -0.730725758244375E-01
              0.566462050729369E+00
              0.675164836470239E+00
              0.183159189985281E+00
             -0.100793871309858E+01
              0.699516209125931E+00
             -0.266225932583607E+00
             -0.398819472234593E+00
             -0.939067928244563E+00
             -0.334815509485094E+00
              0.638343611371373E+00
              0.339486817887245E+00
              0.175517406668462E+00
              0.359791382420835E+00
             -0.599464765318586E+00
             -0.502690208291738E+00
              0.667709984423189E+00
              0.450046698911547E+00
              0.526599049233284E+00
              0.423425530944743E-01
              0.104778443948844E+00
              0.574063155401524E+00
              0.107408483972825E+01
             -0.229987005559931E+00
              0.411440375860103E+00
             -0.235051483136757E+00
             -0.468564425016368E+00
             -0.359452438584663E+00
             -0.329656289758054E+00
             -0.147116400176712E+00
             -0.527617221796562E+00
             -0.233572945392710E+00
             -0.141122179001129E+01
              0.348452731455906E+00
              0.299081750730290E+00
             -0.233286613548966E-01
             -0.402602675920996E+00
             -0.215731745444343E+00
             -0.590132466172689E+00
              0.846547256771575E-01
              0.864414701333615E+00
             -0.203669869926109E+00
             -0.201181104100092E+00
              0.195136181845879E+00
             -0.532799602454502E+00
              0.951884734742943E+00
              0.185625084210382E+00
              0.100414401478096E+00
              0.575747408546293E+00
             -0.336065914513188E-01
              0.636403926703478E+00
              0.198571740753794E+00
             -0.567541115202552E-01
              0.150725961292108E+00
             -0.791671846455642E-01
              0.766060130926420E+00
              0.778387227447546E-01
              0.205543713592375E+00
             -0.907319367398918E-01
              0.110519588690126E+00
             -0.101733240822567E+01
             -0.393482743349570E+00
             -0.519988180801674E+00
              0.573785269267910E+00
             -0.373991711273726E+00
             -0.633732392462407E+00
              0.631000624550424E+00
             -0.161004876803104E+00
              0.468171662717577E+00
             -0.972046902020406E+00
              0.234282045601081E+00
              0.561364139642411E-01
              0.551011088199314E-01
             -0.128145652342505E+00
             -0.624331522539361E-01
              0.538572108754597E+00
              0.318843154574493E-01
             -0.543007707548513E+00
             -0.226503217517188E+00
              0.227407566125298E+00
             -0.126715454037586E+01
             -0.974074876164517E+00
              0.199443442434504E-01
              0.152137644001393E+00
             -0.527516781281368E+00
             -0.583723223265764E-02
              0.114662360237643E+01
              0.346170784430099E+00
             -0.598766515348701E+00
              0.816141204841090E-01
             -0.107198925648699E+00
              0.134315949638455E+00
             -0.368888597397544E+00
              0.225374405412211E+00
              0.258178406715910E+00
             -0.914052123491054E-01
              0.120704507963564E+01
             -0.733636731542078E-01
             -0.339529860252368E+00
              0.302392104918484E+00
              0.472535777258759E+00
             -0.370348148759176E+00
             -0.961908107379933E-02
              0.105666813904117E+01
             -0.267514862655780E-01
              0.556680126549793E+00
              0.179095555053466E+00
             -0.941733381734435E-01
             -0.184600033914023E+00
              0.541829703724770E+00
             -0.630530724999675E+00
             -0.365381070114785E-01
             -0.207239391646954E+00
             -0.452592732795390E+00
              0.118661104588949E+00
              0.246458645361892E+00
              0.749276972289881E-02
             -0.244590972547245E-01
             -0.430973016126116E+00
              0.181791960669814E+00
             -0.254483904402241E-01
             -0.250238845594462E+00
             -0.231767307787163E+00
              0.218606823118294E+00
             -0.162044621121193E-01
             -0.414606539114997E+00
             -0.114761312652072E+01
              0.507383713941412E-01
              0.200618274843791E+00
             -0.494603148467003E+00
             -0.263177088107127E+00
              0.882735184727799E+00
              0.110462869440622E+00
              0.442208341193571E+00
              0.935197689332274E-01
              0.405992609036481E+00
              0.232061304589264E-01
             -0.432734697979970E+00
             -0.793353044943117E-01
              0.697264676503604E-01
              0.312183029438722E+00
              0.839539203475502E+00
              0.534344478605187E+00
              0.189984751382117E-01
              0.109980173882652E+00
              0.655478639514181E+00
              0.293965005038899E+00
             -0.785356536127672E+00
             -0.302281561583681E+00
              0.149424826884522E+00
              0.104884230869724E+00
              0.275327027037277E+00
             -0.570157804433645E+00
              0.691951485260083E-01
              0.423085176142883E+00
              0.532481711100677E+00
             -0.461761217937374E+00
             -0.668110711843006E-02
             -0.236077036727229E-01
             -0.218772908834490E+00
             -0.299614664528287E+00
             -0.144538602151057E+00
             -0.900370985403872E-01
              0.111845256568876E+00
              0.450948290360851E+00
             -0.344822931530468E+00
              0.883735287504390E+00
              0.363661737789442E+00
              0.266737814688285E+00
              0.394981515239046E+00
              0.297968235156556E+00
              0.352020907573599E+00
              0.601912944845665E+00
             -0.510854755456923E+00
              0.683702586532395E+00
             -0.121612489038616E+01
              0.344321003670763E+00
             -0.114298515222798E+01
              0.874096146197986E+00
              0.837180643263385E+00
             -0.941714178011779E-01
             -0.521366398708964E+00
             -0.462041702735702E+00
             -0.607824665691243E+00
             -0.703355604797312E+00
              0.582487813533854E+00
              0.466796475730064E+00
              0.263503634604279E+00
              0.316740607401340E+00
              0.448162272889423E+00
             -0.439679639749530E+00
             -0.163501883079834E+00
              0.590755901018297E+00
             -0.127104996477569E+00
              0.534002140847901E+00
              0.822593990118934E+00
             -0.263521554597312E-01
             -0.809668508294842E+00
              0.333844077766319E-01
              0.290497175391548E-01
             -0.107245008785906E+00
              0.361689105477812E-01
             -0.714696617316159E+00
             -0.136387361031583E+00
              0.137042023049017E+00
              0.125138626582123E+00
              0.529698541533693E+00
             -0.434681264859434E+00
              0.617015266397610E+00
             -0.421773588223436E+00
              0.269608612202836E+00
              0.465488568895425E+00
 
 BEEF-vdW xc energy contributions
           1 :   -7.75173751541407     
           2 :    6.46152810612645     
           3 :   -4.67128030745590     
           4 :    3.04201033728800     
           5 :   -1.80114563349169     
           6 :   0.945836127420998     
           7 :  -0.396638039029147     
           8 :   6.847108432359583E-002
           9 :   0.118539508176323     
          10 :  -0.228250334609600     
          11 :   0.292677061318969     
          12 :  -0.317340599916069     
          13 :   0.303030065018946     
          14 :  -0.262812891869613     
          15 :   0.214447290041740     
          16 :  -0.168850779682925     
          17 :   0.128969848323306     
          18 :  -9.206941578859684E-002
          19 :   5.589946836344417E-002
          20 :  -2.226135515642369E-002
          21 :  -5.955228506538290E-003
          22 :   2.583974320488380E-002
          23 :  -3.741546393891504E-002
          24 :   4.394972305195033E-002
          25 :  -4.726118028431259E-002
          26 :   4.787396789440024E-002
          27 :  -4.651332406140085E-002
          28 :   4.276774167511377E-002
          29 :  -3.615245374945886E-002
          30 :   2.713618805756113E-002
          31 :  -0.955993092189980     
          32 :  -0.592046509230839     

     Writing output data file ./pwscf.save/
 
     init_run     :     62.88s CPU     65.00s WALL (       1 calls)
     electrons    :    426.82s CPU    448.85s WALL (       1 calls)
     forces       :     24.89s CPU     26.68s WALL (       1 calls)

     Called by init_run:
     wfcinit      :      0.92s CPU      0.96s WALL (       1 calls)
     potinit      :     54.87s CPU     56.51s WALL (       1 calls)
     hinit0       :      5.88s CPU      5.98s WALL (       1 calls)

     Called by electrons:
     c_bands      :     66.90s CPU     66.97s WALL (      13 calls)
     sum_band     :     20.91s CPU     23.71s WALL (      13 calls)
     v_of_rho     :    278.01s CPU    294.90s WALL (      14 calls)
     newd         :      9.93s CPU     12.88s WALL (      14 calls)
     PAW_pot      :      0.64s CPU      0.64s WALL (      14 calls)
     mix_rho      :    100.87s CPU    102.00s WALL (      13 calls)
     vdW_kernel   :     33.57s CPU     33.56s WALL (       1 calls)

     Called by c_bands:
     init_us_2    :      0.71s CPU      0.72s WALL (      27 calls)
     regterg      :     65.98s CPU     66.04s WALL (      13 calls)

     Called by *egterg:
     rdiaghg      :      0.02s CPU      0.02s WALL (     157 calls)
     h_psi        :     60.46s CPU     60.48s WALL (     158 calls)
     s_psi        :      0.63s CPU      0.63s WALL (     158 calls)
     g_psi        :      0.21s CPU      0.22s WALL (     144 calls)

     Called by h_psi:
     h_psi:calbec :      0.71s CPU      0.71s WALL (     158 calls)
     vloc_psi     :     58.78s CPU     58.80s WALL (     158 calls)
     add_vuspsi   :      0.70s CPU      0.70s WALL (     158 calls)

     General routines
     calbec       :      0.81s CPU      0.81s WALL (     175 calls)
     fft          :    240.12s CPU    240.15s WALL (    2755 calls)
     ffts         :     46.17s CPU     46.17s WALL (     539 calls)
     fftw         :     54.22s CPU     54.22s WALL (     626 calls)
 
     Parallel routines
 
     PWSCF        :  18m10.87s CPU  19m25.05s WALL

 
   This run was terminated on:   9:43:55  16May2022            

=------------------------------------------------------------------------------=
   JOB DONE.
=------------------------------------------------------------------------------=
