
     Program PWSCF v.6.7MaX starts on 20Dec2022 at 16:25:16 

     This program is part of the open-source Quantum ESPRESSO suite
     for quantum simulation of materials; please cite
         "P. Giannozzi et al., J. Phys.:Condens. Matter 21 395502 (2009);
         "P. Giannozzi et al., J. Phys.:Condens. Matter 29 465901 (2017);
          URL http://www.quantum-espresso.org", 
     in publications or presentations arising from this work. More details at
     http://www.quantum-espresso.org/quote

     Parallel version (MPI), running on     1 processors

     MPI processes distributed on     1 nodes
     Reading input from hco-gas-ensemble.in
Warning: card &CELL ignored
Warning: card / ignored

     Current dimensions of program PWSCF are:
     Max number of different atomic species (ntypx) = 10
     Max number of k-points (npk) =  40000
     Max angular momentum in pseudopotentials (lmaxx) =  3
     file C.pbe-n-kjpaw_psl.1.0.0.UPF: wavefunction(s)  2S 2P renormalized
     file H.pbe-kjpaw_psl.1.0.0.UPF: wavefunction(s)  1S renormalized
     file O.pbe-nl-kjpaw_psl.1.0.0.UPF: wavefunction(s)  2S 2P renormalized

     **************************************************************************
     Initializing libbeef V0.1.2 with the BEEF-vdW functional.
     Citation: Wellendorff et al., PRB 85, 235149 (2012).
     **************************************************************************


     IMPORTANT: XC functional enforced from input :
     Exchange-correlation= BEEF-VDW
                           (   1   4  43  14   2   0   0)
     Any further DFT definition will be discarded
     Please, verify this is what you really want


     gamma-point specific algorithms are used

     Subspace diagonalization in iterative solution of the eigenvalue problem:
     a serial algorithm will be used

 
     G-vector sticks info
     --------------------
     sticks:   dense  smooth     PW     G-vecs:    dense   smooth      PW
     Sum       30703   30703   7669              3947715  3947715  493261
 


     bravais-lattice index     =            0
     lattice parameter (alat)  =      38.7939  a.u.
     unit-cell volume          =   62876.1465 (a.u.)^3
     number of atoms/cell      =            3
     number of atomic types    =            3
     number of electrons       =        11.00
     number of Kohn-Sham states=           10
     kinetic-energy cutoff     =      60.0000  Ry
     charge density cutoff     =     240.0000  Ry
     scf convergence threshold =      1.0E-06
     mixing beta               =       0.7000
     number of iterations used =            8  local-TF  mixing
     Exchange-correlation= BEEF-VDW
                           (   1   4  43  14   2   0   0)

     celldm(1)=  38.793889  celldm(2)=   0.000000  celldm(3)=   0.000000
     celldm(4)=   0.000000  celldm(5)=   0.000000  celldm(6)=   0.000000

     crystal axes: (cart. coord. in units of alat)
               a(1) = (   1.000000   0.000000   0.000000 )  
               a(2) = (   0.000000   1.068560   0.000000 )  
               a(3) = (   0.000000   0.000000   1.007853 )  

     reciprocal axes: (cart. coord. in units 2 pi/alat)
               b(1) = (  1.000000  0.000000  0.000000 )  
               b(2) = (  0.000000  0.935839  0.000000 )  
               b(3) = (  0.000000  0.000000  0.992208 )  


     PseudoPot. # 1 for C  read from file:
     /users/bkreitz1/quantum-espresso/potentials/C.pbe-n-kjpaw_psl.1.0.0.UPF
     MD5 check sum: a169b0ebad56f5ec0d79c4633f80bf22
     Pseudo is Projector augmented-wave + core cor, Zval =  4.0
     Generated using 'atomic' code by A. Dal Corso  v.6.7MaX
     Shape of augmentation charge: PSQ
     Using radial grid of 1073 points,  4 beta functions with: 
                l(1) =   0
                l(2) =   0
                l(3) =   1
                l(4) =   1
     Q(r) pseudized with 0 coefficients 


     PseudoPot. # 2 for H  read from file:
     /users/bkreitz1/quantum-espresso/potentials/H.pbe-kjpaw_psl.1.0.0.UPF
     MD5 check sum: ae98473e6dc62675f0d0baffdab24f65
     Pseudo is Projector augmented-wave, Zval =  1.0
     Generated using 'atomic' code by A. Dal Corso  v.6.7MaX
     Shape of augmentation charge: PSQ
     Using radial grid of  929 points,  2 beta functions with: 
                l(1) =   0
                l(2) =   0
     Q(r) pseudized with 0 coefficients 


     PseudoPot. # 3 for O  read from file:
     /users/bkreitz1/quantum-espresso/potentials/O.pbe-nl-kjpaw_psl.1.0.0.UPF
     MD5 check sum: eef08af8b58d9ec80f8fdb78829eb7cf
     Pseudo is Projector augmented-wave + core cor, Zval =  6.0
     Generated using 'atomic' code by A. Dal Corso  v.6.7MaX
     Shape of augmentation charge: PSQ
     Using radial grid of 1095 points,  4 beta functions with: 
                l(1) =   0
                l(2) =   0
                l(3) =   1
                l(4) =   1
     Q(r) pseudized with 0 coefficients 


     atomic species   valence    mass     pseudopotential
        C              4.00    12.01100     C ( 1.00)
        H              1.00     1.00800     H ( 1.00)
        O              6.00    15.99900     O ( 1.00)

     No symmetry found



   Cartesian axes

     site n.     atom                  positions (alat units)
         1           C   tau(   1) = (   0.4973949   0.5355535   0.4873641  )
         2           H   tau(   2) = (   0.5141196   0.4868391   0.5067818  )
         3           O   tau(   3) = (   0.4882198   0.5814676   0.5215639  )

     number of k points=     1  Gaussian smearing, width (Ry)=  0.0050
                       cart. coord. in units 2pi/alat
        k(    1) = (   0.0000000   0.0000000   0.0000000), wk =   2.0000000

     Dense  grid:  1973858 G-vectors     FFT dimensions: ( 192, 216, 200)

     Estimated max dynamical RAM per process >       2.89 GB

     Initial potential from superposition of free atoms

     starting charge   10.99995, renormalised to   11.00000

     negative rho (up, down):  1.524E-02 0.000E+00


     %%%%%%%%%%%%%%%%%%%%%%%%%%%%%%%%%%%%%%%%%%%%%%%%%%%%%%%%%%%%%%%%%%%%%%%%
     %                                                                      %
     % You are using vdW-DF, which was implemented by the Thonhauser group. %
     % Please cite the following two papers that made this development      %
     % possible and the two reviews that describe the various versions:     %
     %                                                                      %
     %   T. Thonhauser et al., PRL 115, 136402 (2015).                      %
     %   T. Thonhauser et al., PRB 76, 125112 (2007).                       %
     %   K. Berland et al., Rep. Prog. Phys. 78, 066501 (2015).             %
     %   D.C. Langreth et al., J. Phys.: Condens. Matter 21, 084203 (2009). %
     %                                                                      %
     %                                                                      %
     % If you are calculating the stress with vdW-DF, please also cite:     %
     %                                                                      %
     %   R. Sabatini et al., J. Phys.: Condens. Matter 24, 424209 (2012).   %
     %                                                                      %
     %%%%%%%%%%%%%%%%%%%%%%%%%%%%%%%%%%%%%%%%%%%%%%%%%%%%%%%%%%%%%%%%%%%%%%%%


     Starting wfcs are    9 randomized atomic wfcs +    1 random wfcs
     Checking if some PAW data can be deallocated... 

     total cpu time spent up to now is       74.4 secs

     Self-consistent Calculation

     iteration #  1     ecut=    60.00 Ry     beta= 0.70
     Davidson diagonalization with overlap
     ethr =  1.00E-02,  avg # of iterations =  5.0

     negative rho (up, down):  1.200E-02 0.000E+00

     total cpu time spent up to now is      113.4 secs

     total energy              =     -62.48930818 Ry
     estimated scf accuracy    <       0.30031958 Ry

     iteration #  2     ecut=    60.00 Ry     beta= 0.70
     Davidson diagonalization with overlap
     ethr =  2.73E-03,  avg # of iterations =  1.0

     negative rho (up, down):  9.617E-03 0.000E+00

     total cpu time spent up to now is      149.4 secs

     total energy              =     -62.50826685 Ry
     estimated scf accuracy    <       0.05930035 Ry

     iteration #  3     ecut=    60.00 Ry     beta= 0.70
     Davidson diagonalization with overlap
     ethr =  5.39E-04,  avg # of iterations =  2.0

     negative rho (up, down):  8.926E-03 0.000E+00

     total cpu time spent up to now is      186.3 secs

     total energy              =     -62.50870637 Ry
     estimated scf accuracy    <       0.01747341 Ry

     iteration #  4     ecut=    60.00 Ry     beta= 0.70
     Davidson diagonalization with overlap
     ethr =  1.59E-04,  avg # of iterations =  7.0

     negative rho (up, down):  1.584E-02 0.000E+00

     total cpu time spent up to now is      225.8 secs

     total energy              =     -62.51041073 Ry
     estimated scf accuracy    <       0.00333530 Ry

     iteration #  5     ecut=    60.00 Ry     beta= 0.70
     Davidson diagonalization with overlap
     ethr =  3.03E-05,  avg # of iterations =  6.0

     negative rho (up, down):  2.634E-02 0.000E+00

     total cpu time spent up to now is      265.8 secs

     total energy              =     -62.51025941 Ry
     estimated scf accuracy    <       0.00152047 Ry

     iteration #  6     ecut=    60.00 Ry     beta= 0.70
     Davidson diagonalization with overlap
     ethr =  1.38E-05,  avg # of iterations =  7.0

     negative rho (up, down):  4.488E-02 0.000E+00

     total cpu time spent up to now is      305.5 secs

     total energy              =     -62.51076430 Ry
     estimated scf accuracy    <       0.00059628 Ry

     iteration #  7     ecut=    60.00 Ry     beta= 0.70
     Davidson diagonalization with overlap
     ethr =  5.42E-06,  avg # of iterations = 10.0

     negative rho (up, down):  3.441E-02 0.000E+00

     total cpu time spent up to now is      346.1 secs

     total energy              =     -62.51050247 Ry
     estimated scf accuracy    <       0.00018609 Ry

     iteration #  8     ecut=    60.00 Ry     beta= 0.70
     Davidson diagonalization with overlap
     c_bands:  2 eigenvalues not converged
     ethr =  1.69E-06,  avg # of iterations = 20.0

     negative rho (up, down):  3.621E-02 0.000E+00

     total cpu time spent up to now is      390.3 secs

     total energy              =     -62.51052204 Ry
     estimated scf accuracy    <       0.00009504 Ry

     iteration #  9     ecut=    60.00 Ry     beta= 0.70
     Davidson diagonalization with overlap
     c_bands:  2 eigenvalues not converged
     ethr =  8.64E-07,  avg # of iterations = 20.0

     negative rho (up, down):  2.537E-02 0.000E+00

     total cpu time spent up to now is      432.9 secs

     total energy              =     -62.51038941 Ry
     estimated scf accuracy    <       0.00003643 Ry

     iteration # 10     ecut=    60.00 Ry     beta= 0.70
     Davidson diagonalization with overlap
     c_bands:  1 eigenvalues not converged
     ethr =  3.31E-07,  avg # of iterations = 20.0

     negative rho (up, down):  2.317E-02 0.000E+00

     total cpu time spent up to now is      475.7 secs

     total energy              =     -62.51040196 Ry
     estimated scf accuracy    <       0.00001215 Ry

     iteration # 11     ecut=    60.00 Ry     beta= 0.70
     Davidson diagonalization with overlap
     ethr =  1.10E-07,  avg # of iterations =  5.0

     negative rho (up, down):  2.051E-02 0.000E+00

     total cpu time spent up to now is      513.3 secs

     total energy              =     -62.51042564 Ry
     estimated scf accuracy    <       0.00000514 Ry

     iteration # 12     ecut=    60.00 Ry     beta= 0.70
     Davidson diagonalization with overlap
     ethr =  4.67E-08,  avg # of iterations =  2.0

     negative rho (up, down):  1.956E-02 0.000E+00

     total cpu time spent up to now is      549.8 secs

     total energy              =     -62.51042803 Ry
     estimated scf accuracy    <       0.00000153 Ry

     iteration # 13     ecut=    60.00 Ry     beta= 0.70
     Davidson diagonalization with overlap
     ethr =  1.39E-08,  avg # of iterations = 11.0

     negative rho (up, down):  1.903E-02 0.000E+00

     total cpu time spent up to now is      580.2 secs

     End of self-consistent calculation

          k = 0.0000 0.0000 0.0000 (246631 PWs)   bands (ev):

   -28.2582 -15.4509 -12.3936 -11.0548 -10.4905  -4.7393  -2.8738  -0.8023
    -0.2835  -0.1733

     the Fermi energy is    -4.7393 ev

!    total energy              =     -62.51042900 Ry

     total all-electron energy =      -229.121417 Ry
     estimated scf accuracy    <       0.00000047 Ry
     smearing contrib. (-TS)   =      -0.00282095 Ry
     internal energy E=F+TS    =     -62.50760805 Ry

     The total energy is F=E-TS. E is the sum of the following terms:
     one-electron contribution =    -108.36037630 Ry
     hartree contribution      =      55.95871207 Ry
     xc contribution           =     -12.99811431 Ry
     ewald contribution        =      19.59500920 Ry
     one-center paw contrib.   =     -16.70283871 Ry

     convergence has been achieved in  13 iterations

     negative rho (up, down):  1.903E-02 0.000E+00

     Forces acting on atoms (cartesian axes, Ry/au):

     atom    1 type  1   force =    -0.00289930    0.01541073    0.01206632
     atom    2 type  2   force =    -0.00014293    0.00011880   -0.00050648
     atom    3 type  3   force =     0.00304223   -0.01552953   -0.01155984

     Total force =     0.027854     Total SCF correction =     0.000194

     negative rho (up, down):  1.903E-02 0.000E+00

     negative rho (up, down):  1.903E-02 0.000E+00

     negative rho (up, down):  1.903E-02 0.000E+00

     negative rho (up, down):  1.903E-02 0.000E+00

     negative rho (up, down):  1.903E-02 0.000E+00

     negative rho (up, down):  1.903E-02 0.000E+00

     negative rho (up, down):  1.903E-02 0.000E+00

     negative rho (up, down):  1.903E-02 0.000E+00

     negative rho (up, down):  1.903E-02 0.000E+00

     negative rho (up, down):  1.903E-02 0.000E+00

     negative rho (up, down):  1.903E-02 0.000E+00

     negative rho (up, down):  1.903E-02 0.000E+00

     negative rho (up, down):  1.903E-02 0.000E+00

     negative rho (up, down):  1.903E-02 0.000E+00

     negative rho (up, down):  1.903E-02 0.000E+00

     negative rho (up, down):  1.903E-02 0.000E+00

     negative rho (up, down):  1.903E-02 0.000E+00

     negative rho (up, down):  1.903E-02 0.000E+00

     negative rho (up, down):  1.903E-02 0.000E+00

     negative rho (up, down):  1.903E-02 0.000E+00

     negative rho (up, down):  1.903E-02 0.000E+00

     negative rho (up, down):  1.903E-02 0.000E+00

     negative rho (up, down):  1.903E-02 0.000E+00

     negative rho (up, down):  1.903E-02 0.000E+00

     negative rho (up, down):  1.903E-02 0.000E+00

     negative rho (up, down):  1.903E-02 0.000E+00

     negative rho (up, down):  1.903E-02 0.000E+00

     negative rho (up, down):  1.903E-02 0.000E+00

     negative rho (up, down):  1.903E-02 0.000E+00

     negative rho (up, down):  1.903E-02 0.000E+00

     negative rho (up, down):  1.903E-02 0.000E+00

     negative rho (up, down):  1.903E-02 0.000E+00

     negative rho (up, down):  1.903E-02 0.000E+00

     negative rho (up, down):  1.903E-02 0.000E+00
 BEEFens 2000 ensemble energies
             -0.969594257255737E+00
             -0.350509824892860E-01
             -0.201582141823538E+00
              0.668821515041236E+00
             -0.318986177633030E+00
             -0.241805750488568E+00
             -0.707502191114239E+00
             -0.146954092650027E+01
             -0.543495558383570E+00
             -0.585535680356033E+00
             -0.543469132389472E+00
              0.801033489107730E-01
              0.471156078450581E-01
             -0.541886946827632E-01
              0.589455708214133E-01
              0.710889119454100E+00
             -0.308570200632616E+00
             -0.169724013952607E+00
              0.349881226239505E+00
             -0.167869392287999E+01
              0.854475753885020E+00
             -0.298128191957421E+00
             -0.945496734664909E-01
             -0.141066390830695E+00
              0.255164184052177E-01
             -0.913575616942324E-01
              0.134089811612965E+01
             -0.324092734746695E+00
             -0.126997700251305E+00
             -0.843787415838483E+00
              0.106589296318197E+01
             -0.877348923126560E-01
             -0.630320453121861E+00
              0.288110877640281E+00
             -0.446790496031277E-01
              0.418660948209672E+00
              0.178466264000172E-01
              0.896335592058195E-02
              0.544730494780858E+00
             -0.152723299164878E+01
              0.829935545127820E+00
              0.176210375433972E+00
             -0.169544334419767E+00
             -0.461302974436384E+00
              0.180449126319254E+00
             -0.259280911484565E+00
              0.759080175109935E+00
              0.540141498513428E+00
             -0.304961097761650E+00
             -0.485505515921444E+00
             -0.456483779374876E+00
             -0.558172704506907E+00
              0.314399684989322E+00
             -0.797684388829647E+00
              0.239282237320314E+00
              0.923356357193494E+00
              0.112253347126842E+01
              0.488760783303791E+00
              0.262127995633270E+00
              0.477328031178247E+00
              0.137541153079049E+01
              0.272280114466582E+00
             -0.837504205239995E+00
             -0.153335945222940E+00
             -0.440497954862465E+00
              0.947757006423102E+00
             -0.111383077767852E+01
             -0.896443909856920E+00
             -0.491135091177533E+00
             -0.264591496430555E+00
             -0.610908692638928E+00
              0.418348141599697E+00
              0.202770125538992E+00
              0.238144361156809E+00
             -0.578835780945786E+00
             -0.537978414653782E+00
             -0.879651018826751E+00
              0.493973158481587E+00
             -0.511307266372037E+00
              0.465000203182624E+00
             -0.114332322591683E+00
             -0.437754552673095E+00
             -0.788320306669956E+00
             -0.232368290045528E+00
             -0.253042706036725E+00
             -0.236272757820921E+00
              0.585956766961400E+00
              0.115809326814271E+01
             -0.686854300166833E+00
             -0.121273648441856E+01
             -0.281512113588156E+00
              0.166273860473242E+01
             -0.837516657236324E+00
              0.467785157959037E+00
             -0.171285947431296E+00
             -0.914984892309113E+00
              0.422917399968652E+00
              0.477615287572021E+00
             -0.218778769561245E+00
              0.439157367856278E+00
             -0.388290590308147E+00
             -0.907271261727495E+00
              0.150518550757567E+01
              0.689798084824485E+00
              0.337938988478526E+00
              0.193766628899900E+00
              0.338657103160159E+00
              0.123806140689960E+01
             -0.403180696696557E+00
              0.388777294324480E-01
             -0.210711640933036E+01
              0.282641199479750E+00
             -0.101010943369378E+01
              0.187919471207322E+00
              0.325390120215816E+00
             -0.552629195098460E+00
             -0.766413033211813E+00
              0.504466482680659E-01
             -0.462428958575185E+00
              0.658166595576014E+00
             -0.684075950623024E+00
             -0.117974150966607E+00
             -0.583333543333100E+00
             -0.522454528892293E-01
              0.570994774799032E-01
              0.324345312195478E+00
             -0.455827094950223E-02
             -0.101184254858666E+00
              0.994948319325611E+00
              0.139124194537181E+01
              0.744010986674390E+00
              0.101352999591298E+01
             -0.207069439321400E+00
              0.131792299007012E+00
              0.785780170219516E+00
              0.524987823720844E-01
             -0.115099296744991E+01
             -0.653047456972677E+00
             -0.737222740751713E+00
             -0.446683602595977E+00
              0.383992175567197E+00
             -0.184255390696128E+01
             -0.185607167752489E+00
              0.697779212374787E+00
             -0.616098910826318E+00
             -0.450413477996097E+00
              0.859974714249492E+00
              0.746451995137343E+00
             -0.430881320818730E+00
              0.470017562702397E+00
             -0.371899336466255E+00
              0.573265812423260E+00
              0.115887425168926E+00
              0.175212625528142E+00
             -0.125029487436062E+01
             -0.732953237897939E+00
             -0.130851270660299E+00
             -0.406317626288185E-01
             -0.639867882781800E+00
              0.167586002573669E+01
             -0.184914630706601E+00
             -0.411769540564460E+00
              0.598045458717092E+00
             -0.683988072750765E+00
             -0.561435486415365E+00
              0.490163898616103E+00
              0.176662901396607E+00
              0.157317899901631E+00
              0.230485356093060E+00
             -0.160740696613347E+00
              0.162839160866314E+00
              0.890239983364962E+00
             -0.417124811060678E+00
              0.331349599367870E+00
              0.134451223926398E+01
              0.471557143365998E+00
             -0.653365056306807E-01
             -0.302433955783744E+00
              0.234616721769405E+01
             -0.365605773256438E+00
              0.588429492463090E+00
              0.453359308980976E+00
              0.436724591300369E+00
              0.141108902217346E+01
              0.701231281653354E+00
             -0.823129613419241E-01
              0.369051765566542E+00
              0.777869830721567E+00
              0.582807380262125E+00
             -0.918442254709925E+00
              0.142977888829624E+01
             -0.129946329394361E+01
             -0.176595256909430E+00
              0.856897438776378E+00
              0.234479111436417E+00
              0.821473180670758E-01
              0.427215735854721E+00
              0.244918596235324E+00
              0.493399243107306E+00
             -0.949260608366611E+00
              0.581897019690683E-01
             -0.354204911481053E+00
             -0.975651533105104E-01
             -0.410820513062049E-01
             -0.185925764455167E+00
             -0.955648061918248E-01
              0.125886120099102E+01
             -0.790707091413170E-01
             -0.439451493061704E+00
             -0.226184531217319E-01
              0.211851105730774E+00
             -0.966530048941610E+00
             -0.814334486456056E+00
             -0.515877357314928E+00
             -0.948292239002732E+00
             -0.284557549241491E+00
             -0.609538641183173E+00
              0.280217304418896E+00
              0.235275958796184E-01
             -0.191987209736715E+00
             -0.123179301730928E+00
              0.785538182812604E-01
             -0.231576198042536E+00
              0.980295491658481E+00
             -0.131529086967091E+01
             -0.199154834306340E+00
             -0.216449505586964E+00
              0.240031414773364E+00
              0.311200692611209E+00
             -0.773471075340812E+00
             -0.191152900768259E+00
              0.673438697536100E+00
             -0.306767547063183E+00
              0.197482409091905E+00
              0.522635480518252E+00
             -0.936634483108456E-02
              0.174624526377178E+01
             -0.185268466285334E+00
             -0.529295889064487E+00
              0.102865874650941E-01
             -0.419234576893836E+00
              0.818729123519701E+00
             -0.714759825280102E+00
              0.205444499311376E+00
              0.770504334887483E+00
             -0.200330487024819E+00
              0.178229938230239E+01
              0.192783818575947E+01
             -0.107014356985512E+01
              0.864627540992962E+00
              0.342776255714912E+00
             -0.844596186095503E+00
              0.277318248099118E+00
              0.630138671160897E+00
              0.694511164400285E+00
              0.755267921243301E-01
              0.261199652350557E+00
              0.112174747505694E+01
             -0.347795972965033E+00
              0.143264625934264E+00
              0.103698233036500E+01
             -0.553526026849243E+00
             -0.349701083216446E+00
              0.885632744240207E+00
              0.463138281986936E+00
              0.117188584034723E+01
              0.504715200082209E+00
              0.192741988029561E+00
              0.377603426831252E+00
              0.641402646211262E+00
             -0.775858840442551E+00
              0.102138973363268E+00
              0.391157308751321E+00
              0.157249839342228E+00
              0.361973366431217E+00
             -0.934083113916783E+00
              0.494161915940277E+00
             -0.658786790614375E+00
             -0.464041177493752E+00
              0.279756403282454E+00
             -0.144437384733180E+00
              0.894419348798125E+00
             -0.238275204153611E+00
              0.435326906562670E+00
              0.456227231958135E+00
              0.117220694883509E+01
              0.796503081912653E+00
              0.775188060203444E+00
             -0.653333363279351E-01
             -0.161097457987378E+00
             -0.448378845079425E+00
              0.123188224426065E+01
              0.125198307210192E+01
              0.587183816036045E+00
             -0.421647921186940E+00
              0.751343890439563E+00
             -0.175770984206771E-01
              0.273463404201438E+00
              0.104536922226668E+01
             -0.383956932399729E-01
             -0.155922006090871E+00
             -0.332667575412733E+00
             -0.908054414670307E+00
              0.145763133990760E+01
              0.753901801404867E+00
             -0.964854965638290E+00
             -0.318096929295211E+00
              0.387492098713166E+00
             -0.167266385633786E+00
              0.990660831276917E+00
              0.234158137619392E+00
              0.123176016594347E+01
              0.447527965620422E+00
             -0.368189035434963E+00
              0.286539816279467E+00
             -0.104747323521110E+00
             -0.398259547776870E+00
              0.260879515658147E+00
              0.256107109003398E+00
              0.135529966353596E+01
              0.115975491322238E+01
              0.858204464630246E+00
              0.103419835482147E+01
              0.999360005306158E-01
             -0.391187765314488E+00
              0.202072712938600E+00
             -0.510709481451815E+00
             -0.844174677904678E+00
             -0.865166775944990E+00
             -0.480684446205430E+00
             -0.164474294456803E+01
             -0.549555462380016E+00
             -0.130870272822204E+01
              0.303380795256582E+00
             -0.687617907802721E+00
              0.756895271459535E+00
             -0.148109743204180E+01
             -0.449030659811857E+00
              0.614528066892554E+00
              0.332886113189741E+00
             -0.135972485505763E+01
              0.825793376284095E+00
             -0.424824587379438E+00
              0.839249223772510E+00
             -0.431092449997279E+00
             -0.118671578225261E+01
              0.271876185938099E+00
             -0.997235623908828E+00
             -0.763200595106723E-01
             -0.147902373412327E-01
              0.640487285824042E+00
              0.190486738823709E+01
             -0.659836254747503E+00
             -0.570502785370584E+00
             -0.935554572635251E-01
             -0.130817037406787E+00
             -0.121387295464210E+01
             -0.865983974226219E+00
              0.764899101596450E+00
             -0.288846144126998E+00
              0.321904730698403E+00
             -0.750643606692810E+00
             -0.234029539055348E+00
             -0.634837127387821E+00
              0.736410323789798E+00
              0.210402498019690E+00
             -0.369259676975068E+00
             -0.259080785895694E+00
              0.195687906382914E+00
             -0.123879546472671E+00
              0.613659653587682E+00
             -0.406680152089318E+00
              0.147405627602978E+00
              0.502885407915623E+00
              0.206625754958917E+00
             -0.344450157299128E+00
              0.235544089421515E+01
              0.885953372299453E+00
              0.142407267699999E+00
              0.104422854682115E+00
             -0.916401758928309E+00
              0.497262938143824E+00
             -0.117533097009841E+01
             -0.506750174993117E+00
             -0.903183024996321E+00
             -0.271384155774895E+00
              0.884473957343666E+00
             -0.876888809559989E+00
              0.382226672073422E+00
             -0.555799279381723E-01
              0.276862328141387E-01
             -0.487676381314532E+00
             -0.631034765085207E+00
             -0.825492065638791E-01
             -0.531035344043941E+00
             -0.346680902079694E+00
             -0.600399296129878E+00
             -0.864562914277883E-01
             -0.487033456522529E+00
             -0.742444916897910E+00
              0.338627586729764E+00
             -0.201498763798428E+00
              0.351695167993512E+00
              0.135866844653310E+00
             -0.113673927834522E+01
             -0.781388615279038E+00
             -0.735419754393533E+00
              0.500285104601353E+00
             -0.867846563803298E-01
             -0.947215066908507E+00
              0.854429989455425E+00
             -0.643461938387804E+00
              0.874992105980078E+00
             -0.462595535273122E+00
             -0.747859540988644E+00
              0.392427869305827E+00
             -0.110058761333257E+01
             -0.493208339074109E+00
              0.907575763797337E+00
              0.305581468235255E+00
             -0.636954272538957E+00
              0.841361774095437E+00
             -0.243710868912991E+00
             -0.553223783375680E+00
             -0.461127080345327E+00
             -0.790480665939096E+00
              0.377004488273657E+00
             -0.132329874856770E+01
             -0.117932927601997E+01
             -0.108888776974339E+00
             -0.437065680518257E+00
             -0.910664806196687E+00
              0.115593516880577E+01
              0.208193448230928E+01
             -0.350260382447109E+00
             -0.481526711519180E-01
             -0.930094630890840E+00
              0.100036103404560E+01
              0.326901332653950E+00
             -0.300404676065874E+00
             -0.556364705192436E+00
              0.221279080316697E+00
             -0.915435628172516E+00
             -0.173862474959261E+00
             -0.132463284474184E+01
              0.509242782247541E+00
              0.188379409150754E+00
             -0.768197287489691E-01
             -0.159649992522064E+00
             -0.613921725109556E+00
             -0.187704053724774E+00
              0.205687559338750E+01
             -0.239564928922555E+00
             -0.721880239109539E+00
             -0.104441496931754E+01
              0.206725947149424E+00
             -0.568558614102119E+00
              0.138634299153208E+00
              0.499831939573743E+00
              0.724146372726677E-01
              0.534980182957597E+00
              0.265531964148863E+00
              0.895539916758868E+00
              0.393334999559551E+00
             -0.542506615456005E+00
              0.786955362900390E+00
              0.527384840368042E+00
              0.193113189746590E+00
              0.573915921172041E+00
             -0.453318577626675E+00
              0.109155450781665E+01
              0.377163539922850E+00
             -0.521128142610574E+00
             -0.872531410117945E-01
             -0.246485079747551E+00
              0.250815225480139E+00
             -0.401114008939172E+00
             -0.157878704822168E+00
             -0.191283807463000E+00
              0.123394948847031E+01
              0.880655236717490E+00
             -0.100317607034724E+01
             -0.110192496850837E+00
             -0.778073982812299E+00
             -0.213827764494379E+00
             -0.325832963147714E+00
              0.162017677756090E+00
             -0.557388954097670E-01
             -0.424338782340351E+00
              0.239959878358293E+00
             -0.140795249176755E+00
             -0.124660931684339E+00
              0.132609021357529E+01
              0.238865401761951E+00
             -0.124935531109351E+01
             -0.597654014528533E+00
              0.143732438731497E+01
              0.356937575842359E+00
             -0.127162436142477E+00
              0.166459366993529E+01
             -0.274199640510321E+00
             -0.121619242902130E+00
             -0.171364480523773E+00
              0.236308864046608E+00
              0.486617618670648E+00
              0.458798793871400E-01
              0.433899590537155E+00
             -0.182152121969416E+00
             -0.582177148639385E+00
             -0.591642573033974E+00
             -0.740861482374823E+00
              0.632353708951489E+00
              0.227069286132796E+00
              0.575019347799145E+00
              0.242165933840620E+00
              0.136487695197342E+01
              0.301344086460291E+00
             -0.116894129222023E+01
             -0.502214287441549E+00
              0.671991567690429E-01
             -0.430293240000009E+00
              0.963685965039905E+00
             -0.237757850052697E+00
              0.265046386899893E+00
              0.828929197936682E+00
             -0.122033482930844E+01
              0.225215699786980E+01
              0.294015095550489E+00
              0.366982124969472E+00
              0.570258574490808E+00
              0.644867552554409E-01
             -0.408247910436170E-01
              0.505127755470728E+00
             -0.525654030511157E+00
              0.130060508632368E+01
              0.113275611660533E+01
             -0.586054729826907E+00
              0.262275426610876E+00
              0.109675306817765E+01
             -0.334717483494683E+00
              0.299758081453804E+00
              0.528040313600082E+00
              0.645285057064537E+00
             -0.113532503945038E+01
             -0.103944835855989E+00
             -0.428652076562857E+00
             -0.961153669086627E-01
             -0.100389382995677E+00
              0.752523733840862E-01
             -0.220665763636949E+00
             -0.445515528067295E+00
              0.224803543659141E+00
              0.107483564537442E+00
              0.811237967146156E+00
             -0.692045453356182E+00
              0.663193855240220E+00
              0.762283093628749E+00
             -0.169682926959725E+00
              0.116622643049367E+01
             -0.102368574298562E+01
             -0.157413652092702E+01
             -0.105884794042712E+00
             -0.999038529685308E-01
              0.121944022370890E-01
              0.117153199675894E+01
             -0.383431606736049E-01
              0.637254217348487E+00
              0.881628192773351E+00
              0.596093802840368E+00
             -0.846588725711470E-01
              0.928965031192208E+00
             -0.253026654506888E+00
             -0.578879729712815E+00
             -0.584134786783522E+00
              0.138225358701473E+00
              0.563342046435762E+00
             -0.552935109918322E-01
              0.537899301078373E+00
              0.316050812068980E-02
              0.865382565271149E+00
              0.268283779456173E+00
              0.115511896025303E+00
             -0.460607899531595E-02
              0.458268574651974E+00
              0.618146678297047E+00
              0.246486663354455E+00
             -0.491684997411315E-01
             -0.820522488821538E+00
              0.451603306764419E+00
              0.314115469650370E+00
              0.526336472231474E+00
              0.464938354788349E+00
              0.547890977398737E+00
             -0.134783887331459E+00
              0.492147398708517E+00
             -0.438440162531863E+00
             -0.311014712062523E-01
             -0.815028621104219E+00
             -0.529618562043691E+00
              0.657289326379772E+00
             -0.135108753405079E+01
              0.385237684487275E+00
              0.219804729174506E+00
              0.130551392118554E+01
             -0.245444484277850E+00
              0.490555714317194E+00
             -0.179734902531166E+00
             -0.745387734317723E+00
             -0.103574563607579E+01
             -0.206951888074085E+00
             -0.138144060400277E+01
              0.155062935887440E+00
             -0.324133360347216E+00
              0.488826093725337E+00
              0.349845251749011E+00
             -0.421022498546574E+00
             -0.440196451390662E+00
              0.651496743234577E+00
             -0.856446345726975E+00
             -0.198603133958934E+00
             -0.251662570538892E+00
              0.391573489649003E+00
              0.350978785653338E-01
              0.622218103928129E-01
             -0.244990584492076E+00
              0.820929818319120E+00
             -0.862485926289271E+00
              0.117866839016722E+00
              0.908129350679823E+00
             -0.539365257635823E+00
              0.482229429902610E-01
              0.130419378347391E-02
             -0.101411343007828E+01
             -0.621977880228763E+00
             -0.458483222703041E-01
              0.460558066782350E+00
              0.511408486670129E+00
              0.734478578201525E-01
             -0.165959145568184E+00
              0.276667471596794E+00
             -0.636473420755792E+00
             -0.588152923822891E-01
             -0.801349302499026E+00
             -0.397176895347085E+00
              0.753078939537819E+00
             -0.465175026383541E+00
              0.104412642237947E+01
             -0.340870019154492E+00
              0.523217205725130E+00
              0.389066756792195E+00
             -0.910979403139419E+00
             -0.407034064328102E+00
              0.137210980954136E+00
             -0.612388714561729E+00
             -0.627278498630037E+00
             -0.133722079770024E+01
             -0.854735942620715E+00
             -0.756715934094983E+00
             -0.685910567072302E+00
              0.117200934968578E-01
              0.346161296688475E+00
              0.139621539533788E+00
              0.393220508735297E+00
             -0.892752787427719E+00
              0.191957849248535E+00
              0.402735870008949E+00
             -0.104980504837562E+01
             -0.885903347187015E+00
             -0.587522492714994E+00
             -0.469847732623405E+00
              0.235696041642144E+00
             -0.340478068724384E-01
             -0.659652224181990E+00
              0.457136625005544E+00
             -0.335959886181147E+00
              0.799328627687188E+00
             -0.133403881464313E+01
              0.945268354486405E+00
             -0.139589046080529E+00
             -0.662104088587542E+00
             -0.427263340388187E+00
             -0.139225989897684E-01
              0.730109198945419E+00
             -0.107094117889542E+01
             -0.200094977732041E+00
             -0.254550239237680E+00
              0.649484328135518E+00
              0.121904735487998E+01
             -0.151195144253527E+01
              0.140533212768277E+01
              0.615643555147380E+00
             -0.116090826296634E+01
             -0.495380669055822E+00
              0.119242889219814E+01
              0.876370264691170E+00
             -0.307336691566908E+00
             -0.107841475546573E+00
              0.262708774334308E+00
              0.116268231428733E+01
             -0.890445247935539E+00
              0.214650518226278E+00
             -0.107488744154028E+00
              0.429340576030662E+00
             -0.107653832247744E+01
             -0.517976423121956E-01
             -0.433607092825138E+00
              0.735426529095769E+00
              0.596160604201402E+00
             -0.134276346960488E+01
             -0.725314614797421E+00
             -0.325983309642233E+00
             -0.640339419804459E+00
             -0.199807829320962E+00
             -0.301982769736875E+00
              0.694272260501744E+00
              0.668418930511000E+00
             -0.498631508268890E-01
             -0.659899949529492E+00
             -0.129681529053948E+01
              0.755124054198538E+00
             -0.717016228735603E+00
             -0.545338841443178E+00
              0.112261481936981E+00
             -0.547433544514838E+00
             -0.620127735957488E+00
             -0.461078115199714E+00
             -0.749354179393791E+00
             -0.368907245202647E+00
             -0.759666829122078E+00
              0.855767567387033E+00
              0.924433205048064E+00
             -0.143594644812804E+00
             -0.329981004410861E+00
              0.338743776494912E-01
              0.640359015167272E+00
             -0.131308284645237E+01
             -0.358545911363371E+00
              0.772977705166340E+00
              0.105587334460305E+01
             -0.183849847801627E+00
              0.171313343224798E+00
              0.796042057436104E+00
              0.233210720572704E+00
             -0.338118100107243E-02
             -0.591012314451962E+00
              0.236193813017007E+00
             -0.504624820547469E+00
             -0.162821524355838E+00
             -0.313708836354050E+00
             -0.230949396777628E+00
              0.343419745474870E+00
              0.121138163709156E+01
             -0.927388254453305E-01
              0.328725481692675E-01
             -0.139377177960934E+01
             -0.275952590158184E+00
             -0.554037783416622E+00
              0.185327037932077E-01
             -0.689843495356534E+00
              0.133298906798493E+01
              0.132247171070304E+01
              0.284395948270726E+00
             -0.327612975956029E+00
              0.259214689586305E+00
              0.337308457743565E+00
             -0.701753452496157E+00
             -0.123494855649835E+00
              0.269631972244829E+00
              0.194902851850593E+00
              0.781637455317104E+00
              0.620171027408068E+00
             -0.326374659239240E+00
              0.361927338513496E+00
             -0.147795534957840E+01
             -0.483429219740616E-01
              0.136564177666269E+01
              0.267908694755538E+00
             -0.222536915222609E-01
              0.420111710071540E+00
             -0.356987719170912E+00
              0.135919980300688E+01
             -0.283087459556981E+00
              0.120682874686004E+01
              0.577149426930297E+00
             -0.668968902728444E+00
              0.501130052967119E+00
             -0.433067850760706E+00
             -0.102759845265256E+01
             -0.117414568859500E+00
             -0.832662160539547E+00
             -0.804020896299768E+00
             -0.279575841188797E-01
              0.545533573411136E+00
             -0.182111608096923E+00
             -0.491441419660305E+00
              0.110287217864116E+00
             -0.101890101957271E+01
             -0.669739365958953E-01
             -0.132294079471844E+01
              0.827712514980935E+00
             -0.658238293276805E-01
             -0.743719866519899E+00
             -0.276560076824015E+00
              0.260114323338801E+00
             -0.552012042077457E+00
             -0.679864264722329E+00
              0.136091458758024E+01
             -0.410811025302952E+00
             -0.615794525075643E+00
              0.464694600969614E+00
             -0.294168670746690E+00
              0.834106807135822E+00
             -0.141847439417102E-01
              0.618515058829150E-01
              0.163464563913578E+01
             -0.172363890797545E+00
             -0.578987439268924E+00
             -0.692037517828938E+00
             -0.807523213416818E+00
             -0.558357402742491E+00
              0.446706304800749E+00
              0.434401043174667E+00
              0.422185952202362E+00
              0.113812170225437E+01
              0.637683156697317E-01
              0.327640664342788E+00
             -0.917411941869726E+00
              0.207617446181416E-01
             -0.278391048357305E+00
             -0.417352467230058E+00
             -0.587764609721155E-01
              0.507120796485260E+00
              0.579096470624286E+00
             -0.302530343794605E-01
              0.173636025926815E+00
              0.433955113588009E+00
              0.552032823374698E+00
             -0.344281094838251E+00
             -0.152629456469522E+00
              0.160592504932016E-01
             -0.398834612881380E+00
             -0.798891315252197E-01
             -0.556584702901540E+00
              0.117577048306006E+01
              0.936223257933468E+00
             -0.253673197834379E+00
              0.230585074499084E+00
             -0.749817214865947E-01
             -0.444677033519644E+00
              0.554464868608598E+00
             -0.142204376776395E+00
              0.546693668246527E+00
             -0.745785632994342E+00
              0.268859286867183E+00
             -0.123764883227922E+00
             -0.826356720939598E+00
             -0.370848201565920E+00
              0.366225821725467E+00
             -0.147302210422479E+01
              0.583789421721416E+00
              0.719026552911116E+00
             -0.142208979293972E+00
             -0.101505984957716E+00
             -0.478343238826162E-01
              0.401837481570515E+00
             -0.509393685071521E+00
              0.484376710710424E+00
              0.485146949819502E+00
             -0.144306274935223E+01
             -0.541785191741721E+00
              0.363089341198075E+00
             -0.189976196700925E+00
              0.705324856696420E+00
             -0.936354755075649E+00
             -0.112071885429842E+00
             -0.607330175219393E+00
             -0.196303309585248E+01
              0.120175543411168E+01
             -0.920524459769163E+00
             -0.999737199550204E+00
              0.101909153667352E+00
              0.196494480587864E+01
              0.899514898031448E-01
             -0.463586610571883E+00
             -0.136490441126771E-01
             -0.714762207907265E-01
             -0.133512468515431E+01
             -0.864027940550105E+00
              0.129458172383516E+01
             -0.160470881907467E+00
             -0.561288817561816E+00
              0.765783047786881E+00
             -0.504659600268431E+00
              0.526832745718407E+00
              0.750338238052406E+00
             -0.843282356665689E+00
             -0.424798008941672E+00
             -0.489134772208828E+00
             -0.245723665462466E+00
             -0.311316280477053E+00
             -0.246346321141319E+00
              0.284433343700437E+00
             -0.529887574170795E+00
              0.430399818032738E+00
              0.857771812100201E+00
             -0.139071981947069E+00
             -0.295714749478228E+00
              0.220514156135496E+00
              0.833483400710610E+00
              0.821251172093370E+00
              0.118610703987140E+00
             -0.134096089332760E+00
             -0.146289105138013E+00
             -0.810629056966649E+00
              0.610332021366975E+00
             -0.388308341950977E+00
              0.325179473660265E+00
             -0.210292403146662E+00
              0.414095142979294E+00
              0.259237031992371E+00
             -0.124907275988874E+01
             -0.402547952668426E+00
             -0.119529293457282E+01
             -0.590199171266036E+00
              0.819370023890322E-01
             -0.288012124550124E+00
              0.517806326942008E+00
             -0.427363872335111E+00
              0.399470848888204E-01
              0.116012551631364E+00
              0.110423075079568E+01
              0.566646493626645E+00
             -0.472481915843901E+00
             -0.161655846144257E-01
              0.222053818793524E+00
              0.564932943513800E+00
             -0.300685090736597E-02
              0.847095427914193E+00
              0.431164164866607E+00
              0.137241976807810E+01
              0.645878460624287E-01
              0.975856875680407E+00
             -0.410925554181899E+00
             -0.603275699641634E+00
              0.663403893851378E-01
              0.147897716147463E+00
              0.376094217498321E+00
             -0.251213318977101E+00
             -0.185422892646518E+00
              0.348886814954511E+00
             -0.712911723836735E+00
             -0.879425936679767E+00
              0.119702463313700E+01
             -0.979897977222706E-01
             -0.593935466821243E+00
             -0.730237633881077E-01
             -0.218997677611452E+00
              0.623656674626378E+00
              0.550339588447623E+00
             -0.302277910675111E+00
             -0.160327879207878E-01
             -0.405414926163823E+00
             -0.534672034465469E+00
             -0.386965046946916E+00
             -0.148726667236873E+01
             -0.129751455655871E-01
             -0.100625070146154E+01
             -0.889333787314702E+00
             -0.596949642073821E+00
              0.319155629831978E+00
             -0.594272692370690E+00
              0.349389844327180E+00
             -0.960852100994492E+00
              0.337685094823570E-03
             -0.643285276308933E+00
              0.100224486143070E+00
              0.121199306386681E+00
              0.507509035505298E+00
             -0.307405789536544E+00
             -0.288063755537976E+00
              0.464424479074732E+00
              0.916748908925463E+00
              0.487923160949951E+00
              0.159512305815063E+00
             -0.111607232384472E+01
             -0.225254530939998E+00
             -0.429318086919426E+00
             -0.947747339474144E+00
              0.662083828440350E+00
             -0.521415935866266E+00
             -0.108030748543080E+00
             -0.402319015593707E+00
             -0.152763712961506E+01
              0.847569406142804E+00
             -0.274422709716154E+00
              0.599347228592737E+00
             -0.112923060213352E+01
              0.993143586419777E+00
              0.823207158627746E-01
             -0.413536779396404E+00
              0.131087663785038E+00
             -0.328157775613015E+00
             -0.991070050288971E+00
              0.267246188050992E+00
              0.543702054436833E+00
             -0.319574416305279E-02
             -0.524864248121725E+00
             -0.220806787486318E+00
              0.302153404979808E+00
              0.539567448711651E+00
              0.954682222593714E+00
              0.355500333134582E+00
             -0.351992813609029E+00
              0.146967111525816E+01
              0.354410018259965E+00
              0.687250554936125E+00
             -0.240617236580622E+00
              0.454424581686801E+00
              0.333752455539710E+00
             -0.943533867691037E+00
             -0.335343657640052E+00
             -0.603723558384610E+00
             -0.589383002764699E+00
             -0.163994659042610E+00
             -0.160768728403123E+00
             -0.663993190519949E+00
             -0.171108118323460E+01
             -0.416324255476608E+00
              0.229675193389367E+00
              0.891093936345921E-01
              0.204206540421663E+00
              0.648266473979207E+00
              0.198401311828179E+00
              0.478455525207082E+00
             -0.672788877955715E+00
              0.668623611397512E+00
             -0.631754372627300E+00
             -0.105207650399529E+01
              0.295408244162589E+00
             -0.619094319547983E+00
             -0.621539617298522E+00
             -0.242971919012425E+01
             -0.121479401307537E+00
              0.127073059143807E+01
              0.642459547342004E+00
             -0.157547165473832E+00
             -0.160257619180165E+00
              0.606662535762070E+00
              0.980614951508230E+00
             -0.598095027840486E+00
             -0.190097406480485E+00
             -0.536015518656635E+00
             -0.519908842607455E+00
             -0.469139806675711E+00
              0.193362461816667E+00
              0.108280634819477E+01
             -0.100317077520604E+01
             -0.823468693767468E+00
              0.443387056316302E-01
             -0.209897925204254E+00
             -0.273718660279839E+00
             -0.137915568615525E+01
              0.917325014133396E+00
              0.320133285794366E+00
              0.121936786607956E+00
              0.793894966006820E+00
             -0.485227172836306E+00
              0.511096298410352E+00
              0.437900095903575E+00
              0.505562925712644E-01
             -0.125570498722459E+00
              0.147403697454443E+00
             -0.232245536081069E+00
              0.772786554189408E+00
             -0.629080971969942E+00
              0.684193182969426E+00
              0.145783219965225E+00
              0.239662861282089E+00
              0.311014931041875E+00
             -0.123808354854759E+01
              0.135791634320297E+00
             -0.100769201467499E+01
             -0.744833588163851E+00
             -0.739396018298070E+00
             -0.777971801807202E+00
              0.155580769023302E-01
              0.266139571442028E+00
              0.752056750570064E+00
              0.121125376878621E+00
              0.220332863801901E+00
             -0.106998180605968E+01
             -0.430773471884421E+00
              0.493379452014946E+00
             -0.275881997092472E-01
             -0.361425712910290E-01
             -0.142261728529004E+00
              0.553550037968827E+00
             -0.139113705579460E+01
              0.202469963128639E+00
              0.341330768656713E+00
              0.610255916449572E+00
              0.575192910167456E+00
             -0.868447874968885E+00
              0.217787069093650E+00
              0.932290234941786E-01
              0.109649759027654E+00
              0.600928225657871E-01
             -0.306483934811774E+00
             -0.629605271540928E+00
              0.262336401846904E+00
              0.898197724104477E+00
             -0.464958400053526E-01
              0.196104002962888E+00
              0.186625057607015E+00
             -0.456558197616696E+00
             -0.469708382327052E+00
             -0.184920388838099E+01
             -0.595757803960153E+00
             -0.861171153777872E+00
             -0.110751038207556E+00
             -0.102304027437330E+01
              0.116016373448417E+01
             -0.504403235694758E+00
             -0.828700948429614E+00
             -0.240216180690284E+01
              0.102842585402507E+01
              0.220794813338952E+00
              0.904712619704986E-01
             -0.928659828488346E+00
              0.716504767676263E-01
             -0.241658820584124E+00
             -0.480613955323401E+00
              0.123093877484622E+00
              0.488254283794909E+00
              0.886782842074059E-01
             -0.291593214375698E+00
              0.316568540609961E-01
              0.128238772939273E-01
              0.194544021493499E+00
             -0.101164298226634E+01
              0.110412267472407E+01
             -0.632815460253566E+00
             -0.400467750089478E+00
             -0.747669058440602E+00
             -0.162068384047279E+01
              0.850601947073490E-01
             -0.833725950308553E+00
             -0.304394251478092E+00
              0.481766754906988E+00
             -0.393836811081546E+00
             -0.137174656041852E+00
             -0.187249063568842E+00
             -0.341964241230651E+00
              0.406949127605302E-01
              0.789493975642245E+00
             -0.789212831845844E+00
              0.155017505624409E+01
             -0.356196110507371E+00
              0.508628040718563E+00
             -0.234860795684889E+00
              0.196547279727390E+00
             -0.188212862398760E+00
              0.689231811896163E+00
              0.971376370467995E+00
              0.275106834960231E+00
              0.728457847281094E+00
             -0.475867575971356E+00
             -0.928187630446580E-01
             -0.377584636961389E+00
              0.972080496490193E+00
              0.840452470718930E+00
              0.618623008231086E+00
             -0.206736881167975E+00
             -0.400299207100782E+00
              0.369549470968237E+00
             -0.424558323233819E+00
             -0.222992769572672E+00
             -0.977694794276470E-01
             -0.519128688316789E+00
              0.761438453956597E+00
             -0.150212215458280E+00
              0.553515127024206E+00
              0.305001276659883E+00
              0.244032656919739E+00
             -0.524308607701059E+00
              0.418365769854997E+00
             -0.215493061512870E+00
             -0.120804462695543E+00
             -0.185659871000503E-01
             -0.756855782610956E+00
              0.119239466426262E+01
             -0.424223004702184E+00
              0.746253960074572E-02
              0.358852838867886E+00
              0.308552042034076E+00
              0.116167032557483E+01
             -0.330572909191663E+00
              0.115752059990926E+01
              0.102658837787748E+01
             -0.144316702800056E+01
              0.119391272578842E+00
             -0.286107570944070E+00
              0.171238564755323E+00
              0.742466245148625E-01
              0.300897045626449E+00
              0.973507689920043E+00
              0.147363995814079E+01
             -0.114021923179616E+01
              0.117069927408365E+01
             -0.150647278843974E+01
             -0.127354931425805E+01
             -0.211085612077940E+00
              0.183016760484507E-01
              0.117865526710333E+01
              0.520554544335116E+00
             -0.230458897842140E+00
             -0.130772384718971E+01
              0.102380748764172E+01
             -0.645518079713737E+00
              0.171201369072946E-01
             -0.684176019321709E-01
              0.197642660774720E+01
             -0.361168579767368E+00
             -0.160426118621473E+01
              0.464959967133121E+00
             -0.246862337076257E+01
              0.197586034851448E+00
             -0.582582780085945E+00
             -0.261369598530857E+00
             -0.402841375458973E+00
             -0.900868961018157E+00
              0.572044900033460E+00
             -0.540595189130747E+00
             -0.193936246835082E+00
             -0.116141345200822E+01
             -0.721384557129277E-01
             -0.808431306490545E+00
             -0.116601447431343E+01
             -0.168278188117514E+01
              0.134891971116329E+00
             -0.537082289827557E+00
              0.100632034143346E+00
             -0.190987166005536E+00
             -0.125854343014560E+01
             -0.969821018555563E+00
             -0.861546852359925E+00
             -0.863515025505426E+00
              0.798766985280054E+00
              0.115275144068037E+00
             -0.742749135463087E+00
             -0.362512037146227E+00
             -0.408656091683323E+00
              0.613825659439762E+00
             -0.485123464609812E+00
             -0.101309179050904E+00
             -0.443193408389376E+00
             -0.604086543792785E+00
             -0.616242468796834E+00
              0.621271383412710E+00
             -0.201100580641759E+00
             -0.138573275612037E+01
              0.120071745117222E+01
              0.700897113519601E+00
              0.649450173552033E-01
             -0.121285727497494E+01
             -0.114763550789985E+01
              0.106587878171193E+00
              0.223311248136318E-01
             -0.508214904520324E+00
             -0.696703318921519E+00
              0.489615456702225E+00
             -0.861851742621225E-01
              0.408601730363345E+00
              0.727101734763153E+00
              0.545330616410471E+00
              0.397459438487755E+00
              0.339157291376021E+00
             -0.342083958993349E+00
             -0.218606585416394E+00
             -0.277474455389452E+00
             -0.571468737214935E+00
             -0.731793805043170E+00
             -0.940826356784222E+00
             -0.557207748495376E+00
             -0.181539108455399E+00
             -0.116402431843685E+01
             -0.226176549957335E+00
              0.514387356073006E+00
             -0.123481691026819E+01
              0.520604236903717E+00
              0.416011166305050E+00
             -0.108627111945250E+01
             -0.857263213320163E+00
             -0.331753157085428E+00
              0.215451134446410E+00
             -0.625703144853944E+00
              0.113455496228859E+01
              0.100300195884616E+01
             -0.117367158102030E+01
              0.675474003563608E+00
              0.555229242450897E+00
              0.149383653059870E+00
              0.304942401308429E+00
             -0.645577164104798E+00
             -0.233886949933504E+00
              0.833404689620671E-01
              0.303276911233463E+00
              0.646782695745134E+00
             -0.830991971614561E+00
             -0.144189090563273E+00
              0.256003847572356E+00
              0.923816663692705E-01
             -0.509276377841815E+00
              0.282395395575034E+00
             -0.394880643211801E+00
             -0.271878905566883E+00
              0.542073949106214E-02
             -0.939814259739275E+00
              0.124266241190085E-02
             -0.189634184285746E+00
             -0.224599980455062E+00
              0.190697363393344E+00
             -0.819050919824088E+00
              0.869511031197637E+00
             -0.342890189914193E+00
             -0.202562970244951E+01
             -0.131501264797064E+01
              0.542525019594717E+00
             -0.606267082620563E+00
             -0.324035907237924E+00
             -0.382934449994477E+00
             -0.278079303259037E+00
             -0.157254578410539E+01
             -0.517922042452543E-01
             -0.951772687461943E+00
             -0.491460612311230E+00
              0.337899473906822E+00
              0.118520214641424E+01
              0.537072604866465E-01
              0.340708149910167E-01
              0.910927027997027E+00
             -0.838626982642630E+00
              0.452142890657238E+00
              0.104842468935773E+00
             -0.772117577820405E+00
             -0.419207596711196E+00
              0.309698747626005E+00
              0.400041553057982E-01
              0.235692320710839E+00
              0.217840790481204E+00
             -0.356096766768990E+00
             -0.475123310234849E+00
             -0.761092225378434E+00
              0.748910815131858E+00
             -0.102867554086585E+01
             -0.755328106305531E+00
              0.220932729231880E+00
             -0.130624072621565E+01
              0.331770347352900E+00
              0.897646753420689E+00
             -0.159824041043231E+00
              0.263933932300741E+00
             -0.481766676482988E+00
             -0.331145733504998E+00
              0.158775570208550E+00
              0.550805090136697E+00
             -0.566182107308648E+00
              0.361089141521890E+00
             -0.212884461785132E+00
              0.558685128730483E-01
              0.310002456493305E+00
              0.186267276366272E+00
             -0.165548011911206E+00
             -0.135490635027269E-01
              0.219674858989741E+00
              0.419849360399430E+00
             -0.107687089344876E+01
             -0.256228049777185E-02
              0.820329167871149E+00
             -0.138106879121076E+01
              0.503962569436611E+00
             -0.175334534051959E+01
             -0.160795973156520E+00
             -0.221462619374324E+00
             -0.578861858167912E-01
             -0.172956740260781E+00
             -0.426535553314451E+00
             -0.129742708260792E+00
              0.217720474539652E+00
             -0.362850486249154E+00
              0.170859508774588E+00
              0.137126619527813E+01
             -0.889966463656052E+00
             -0.393408535099709E+00
              0.616693774520607E+00
              0.328316423458655E+00
              0.628740302832742E+00
              0.276165428192630E+00
              0.306336040489491E+00
             -0.226341185797019E+00
             -0.753894267380420E+00
             -0.678321185333153E+00
             -0.482090146037945E+00
              0.703251778794574E-01
             -0.642051009044643E+00
             -0.180835384464813E+00
              0.977104269731814E-01
              0.367589855746099E+00
             -0.107048399597994E+00
              0.887642939972642E+00
             -0.949271370584637E+00
             -0.337297690727922E-01
             -0.113008817844572E+00
              0.472877382769594E+00
             -0.662436389250622E+00
             -0.427031476619694E+00
              0.253594881291490E+00
              0.724840699114490E+00
              0.112442443104656E+01
              0.490271886139632E+00
              0.690225317925559E+00
             -0.390662998233127E+00
              0.960901827330380E+00
              0.968354169963232E+00
             -0.508513055702355E-01
              0.499904641469732E+00
              0.584428312231260E+00
             -0.320617603153926E+00
              0.177219695335180E+00
              0.998958260300278E+00
             -0.344273157173841E+00
             -0.129760738189638E+00
             -0.960374886177311E+00
              0.359286047059351E+00
             -0.202234548446028E+00
              0.315398776191147E+00
              0.479859711076651E-01
             -0.604003381742626E+00
              0.703601047971867E+00
              0.606803065411866E+00
             -0.454338100970029E+00
              0.256770084802655E+00
             -0.893668641169679E+00
             -0.826140178771391E+00
              0.374367975736519E+00
             -0.104328050266517E+01
             -0.512356748052108E+00
              0.439311784332972E-01
              0.130128475021673E+01
             -0.333423802414328E+00
             -0.161667348641099E+00
             -0.285767266208974E+00
              0.171529094630073E+01
              0.286228088250552E+00
             -0.637213115968986E+00
              0.106278538311701E+01
              0.950347315157993E+00
              0.499419215408205E+00
              0.120354142724329E+01
              0.129505019616913E+01
             -0.827862483401163E-01
             -0.452534830509946E+00
             -0.414195254988533E+00
              0.407937598092772E+00
              0.584443877781873E+00
             -0.100959386276187E+00
             -0.358609339272565E+00
             -0.882337001325886E+00
             -0.347156153145758E+00
             -0.706478620692215E+00
              0.499868112703090E+00
              0.256764155301624E+00
              0.909668202143543E+00
              0.175103349859237E+00
             -0.359547619948358E+00
             -0.130457462890293E+00
              0.612646850952013E+00
              0.167154020587940E+00
              0.907196900728503E+00
              0.857451614706786E+00
             -0.153098523518747E+00
             -0.126121837880901E+00
             -0.151911141411398E+01
              0.761710375206046E+00
             -0.270929897811740E-01
              0.847346869263900E+00
             -0.369285893799187E+00
             -0.990855185379317E+00
              0.291004365692895E+00
              0.109453945040603E+01
             -0.389437020001962E+00
              0.102617671606499E+01
             -0.109815441021543E+01
             -0.385477172844886E+00
             -0.128252111705667E+01
              0.277449199860456E+00
              0.985461881360505E-01
              0.103165063965558E+00
             -0.940877663397815E+00
              0.138945009014186E+01
              0.818098703008517E+00
              0.979378525597987E-01
             -0.784487162987617E+00
              0.313884654547989E+00
             -0.311513697388956E+00
             -0.205750649876387E+00
             -0.391741953886164E+00
              0.268188128303133E+00
             -0.228106133488470E+00
             -0.281179260763515E+00
              0.347240596756620E+00
              0.356701371964212E+00
             -0.135773633933655E+01
              0.297505733384171E+00
              0.100384203728566E+01
              0.645031668284067E+00
             -0.208962681719406E+00
             -0.783297551435069E-02
             -0.561450036370564E+00
              0.860407023386300E+00
              0.164298716696514E+00
             -0.596304703332926E-01
             -0.869869424203928E-01
              0.166300887738166E+01
             -0.834079708545250E-01
              0.387902519516913E+00
              0.111725874613956E+01
              0.148084678721073E+01
              0.917886178127767E+00
              0.617308372313091E+00
             -0.952684565007305E+00
             -0.701187189340160E+00
              0.550235898638126E+00
              0.424157710952109E-01
              0.467238723487176E+00
              0.205044333866552E+00
              0.970862502864188E+00
             -0.120828541569604E+01
             -0.746580458545778E+00
             -0.160660189956441E+00
             -0.131939588988625E+01
              0.280867711050302E+00
              0.670930948536354E+00
              0.620507676167783E-01
             -0.317794073416922E+00
              0.326893036508470E+00
              0.207623338913157E+01
              0.468810372144199E+00
              0.264117383593016E+00
             -0.735006157203535E+00
             -0.912507366556522E+00
             -0.211595652493878E+00
              0.428672937030318E+00
             -0.883838693397383E-01
              0.371554343449274E+00
              0.530515867898046E+00
             -0.956077884508654E+00
              0.407455656944975E+00
              0.571698079228277E+00
              0.880346467386799E+00
             -0.148269283708288E+00
              0.590887635518804E-01
             -0.112034758124872E+00
             -0.695452682135704E+00
             -0.110682590050762E+01
              0.117960913083896E+01
             -0.147858090979248E+00
             -0.826508511428390E+00
              0.101611011481158E+00
             -0.449751097768418E+00
              0.131403976626449E+01
             -0.339096871254103E+00
             -0.565219003946207E+00
              0.544483950652793E+00
             -0.226105575368041E+00
              0.703299034352996E+00
             -0.401228928507713E-02
              0.143541945887655E+01
              0.776949752082407E+00
              0.143399441438657E+00
             -0.589082064860155E+00
              0.425107731139267E+00
             -0.826984908945329E+00
             -0.812852232530044E-01
              0.978910218954527E+00
             -0.385119260536165E+00
             -0.671891739729976E+00
             -0.337946300096541E+00
              0.792619462823582E+00
              0.190887607414198E+00
             -0.125287774375965E+01
              0.519174355336650E+00
              0.126832600450531E+00
              0.155165190860534E+00
             -0.743045921914778E+00
              0.138974537143350E+00
              0.529257200972480E+00
              0.726289029646078E+00
              0.972078814170161E+00
              0.516158236669823E+00
              0.117904219559766E+00
             -0.824191618712980E+00
             -0.645437069549158E+00
             -0.102005504880779E+01
             -0.188776774417905E+00
              0.518508748819729E+00
             -0.168926045210682E-01
              0.798597498635578E+00
             -0.482003370165843E+00
              0.265073857836529E+00
             -0.320414051530601E+00
             -0.407398728040451E+00
              0.889790446984419E+00
              0.885315864962273E-01
              0.933055342153882E+00
              0.821531523050085E-01
              0.316122370159201E+00
             -0.245134676240093E+00
              0.921834946026379E+00
             -0.223787149973797E+00
             -0.110107853837885E-01
             -0.118905657864938E+01
             -0.120697467880725E+00
              0.107121360465674E+01
              0.100309250516875E+01
              0.365864539161643E+00
             -0.228192919289747E+00
              0.604371717946290E-01
             -0.338836465129786E+00
             -0.249112091973436E+00
              0.135171680381375E+01
              0.958428083437433E-01
             -0.420127389798066E+00
             -0.163405838804639E+01
             -0.692696465682866E+00
             -0.572913280668087E+00
             -0.947313242020121E+00
             -0.898350446074551E+00
             -0.108890562609230E+01
             -0.681001366585505E+00
             -0.450879891321785E+00
             -0.719256906543341E+00
              0.676751491373564E+00
             -0.298473804323576E+00
             -0.135350700365192E+01
              0.637744980543608E+00
             -0.500495900164103E+00
             -0.120864378622856E+01
              0.153502189782424E+01
             -0.375197169313907E+00
              0.246467571389127E+00
              0.594487283699115E+00
              0.165236263579666E+00
              0.383741095616060E+00
              0.161550896700260E-01
              0.144048901212762E-01
             -0.188781054343142E+00
             -0.110566651903151E+01
              0.164826710430004E+00
             -0.185900819273122E+01
              0.106690440935770E+01
             -0.612516535091602E+00
             -0.263795263183406E+00
             -0.304649122517755E+00
              0.308045542778663E+00
             -0.257467195711353E+00
              0.443882926444323E+00
             -0.876225202449822E+00
              0.567651581902120E+00
              0.633160340891266E+00
              0.164491424502191E+00
              0.133218504175037E+00
              0.323927717984543E+00
              0.136064256571566E+00
              0.471356469004061E+00
             -0.813792029481171E-01
             -0.108060651306612E+01
              0.148053024798378E+00
             -0.506858913216576E+00
             -0.408047115678674E-01
              0.820760571658294E+00
             -0.122687738441406E+01
              0.232748069699227E-01
              0.462684049749997E-01
              0.140780499299765E+00
              0.471617886054294E+00
             -0.197890710102349E+00
              0.128368432897592E+01
              0.597332834580243E+00
             -0.234329959670700E+00
             -0.151881010439359E+00
              0.855631481448360E-01
              0.120384869014852E+01
             -0.763864122052755E+00
             -0.155167438640217E+01
              0.441407785320873E+00
             -0.116612778518613E+00
             -0.224842575413430E+00
              0.287150369089942E+00
              0.116070040009469E+01
              0.646419131965834E+00
             -0.266717286139305E+00
             -0.810658760395080E+00
             -0.176276561432519E+00
              0.421586297367607E+00
             -0.260555285102244E+00
             -0.115432315119978E+01
             -0.121874798565370E+00
             -0.146754993431937E+01
             -0.771712822944242E+00
              0.130088490487564E+01
             -0.787931132015575E+00
             -0.107417171441504E+01
             -0.815008105770759E+00
             -0.597526187888178E+00
              0.510861327575305E+00
              0.128906363884916E+01
             -0.128443807765035E+00
              0.408074221893703E+00
             -0.296519149139031E+00
             -0.102974947003789E+01
              0.786703578721896E+00
             -0.727107276468621E+00
              0.400009384782286E+00
              0.454875441771236E+00
             -0.224333112631005E+00
              0.590269112167235E+00
              0.603021257900038E+00
              0.179595735526220E+01
             -0.178142727106206E+00
             -0.821190693828432E+00
             -0.101300553173335E+01
             -0.275077637273242E+00
             -0.599346562893440E+00
              0.145031734556025E+01
             -0.689816105536415E+00
              0.149997261684378E+00
              0.533092901449610E-01
             -0.312712489455794E+00
             -0.128381858729344E+01
             -0.101287059991429E+00
              0.152561713323335E+01
              0.302343602080238E+00
              0.118064841942288E+00
             -0.865485180345968E+00
             -0.834131658511525E+00
             -0.247031869951715E+00
              0.694326732366575E+00
             -0.398504197703509E+00
              0.154847094113059E+01
             -0.696954895080709E+00
              0.285261313749293E+00
             -0.237126713656146E+00
             -0.946040303878458E+00
              0.952978929369896E-01
             -0.852043958083717E+00
             -0.112798406412897E+01
              0.149709637670835E+00
              0.210155194324328E-01
              0.745319444937760E+00
              0.398347156462580E+00
             -0.529045036719832E+00
              0.342320071648077E+00
             -0.131745600812787E+01
             -0.738734253712066E+00
              0.142168175330610E+01
              0.777937438538379E-01
             -0.105877537207379E+00
             -0.396169524634771E+00
             -0.513672853224989E-02
             -0.171496414978876E+00
              0.137449976682113E+01
              0.621848837668002E+00
             -0.152001359897002E+00
             -0.264507498637974E-01
             -0.594665379150557E+00
             -0.217295874170476E+00
             -0.965159401635454E+00
              0.781921602684285E+00
              0.101401835637950E+00
              0.135416709178102E+00
              0.267604061854876E+00
             -0.195038711960527E+00
             -0.336182278908528E+00
              0.916598198121378E-01
             -0.167894755179842E+01
             -0.174878859197261E+00
             -0.130460143580482E+00
             -0.990229965787108E-01
              0.770442542158444E+00
              0.968307713818920E+00
              0.265788031716085E+00
             -0.142311683446042E+01
              0.978528709657192E+00
             -0.367766282566186E+00
             -0.565590264281008E+00
             -0.132942667931768E+01
             -0.442174675386164E+00
              0.933026038292105E+00
              0.492582845244172E+00
              0.244139301958147E+00
              0.521967563536619E+00
             -0.852052552601074E+00
             -0.729253906909908E+00
              0.944275105095169E+00
              0.633176265786445E+00
              0.730504779364997E+00
              0.918971758403455E-01
              0.150892666351149E+00
              0.810455168015539E+00
              0.151187876602137E+01
             -0.297215081634317E+00
              0.598067103122318E+00
             -0.389183450864504E+00
             -0.665949239539739E+00
             -0.517241184228709E+00
             -0.488978341835756E+00
             -0.212573578029242E+00
             -0.737403733534038E+00
             -0.311497380181136E+00
             -0.198523117004003E+01
              0.483967808555689E+00
              0.424172420767823E+00
             -0.430010680671136E-01
             -0.569234380602531E+00
             -0.296233305137912E+00
             -0.844632763675214E+00
              0.105283917210761E+00
              0.121609486979113E+01
             -0.289238915616981E+00
             -0.284077939035475E+00
              0.283551626176919E+00
             -0.761486126889387E+00
              0.132536384177990E+01
              0.250335692423670E+00
              0.124515906180116E+00
              0.803354810046896E+00
             -0.654675725427367E-01
              0.896962412539787E+00
              0.292958278322697E+00
             -0.542994855868284E-01
              0.207958525915168E+00
             -0.130202941601939E+00
              0.105027964784824E+01
              0.110120236551417E+00
              0.306061014414452E+00
             -0.132336061310805E+00
              0.163445968191770E+00
             -0.143693064281229E+01
             -0.549088326681838E+00
             -0.744692064011819E+00
              0.788091916185814E+00
             -0.531093644716265E+00
             -0.874580774464571E+00
              0.902618812621920E+00
             -0.219677203611476E+00
              0.643743392337366E+00
             -0.136898796563454E+01
              0.301907035384139E+00
              0.718983098904864E-01
              0.877162713921855E-01
             -0.191490346601428E+00
             -0.924504193198219E-01
              0.765985347508250E+00
              0.444196739924712E-01
             -0.788255627141829E+00
             -0.321509879203739E+00
              0.304302600277903E+00
             -0.177276235859641E+01
             -0.135186172193181E+01
              0.188308422228625E-01
              0.230312842249919E+00
             -0.759124555917142E+00
              0.217802413488677E-03
              0.159470818869466E+01
              0.468609356518849E+00
             -0.833971894613395E+00
              0.118238471798340E+00
             -0.157551630479985E+00
              0.193491052694987E+00
             -0.533247395238572E+00
              0.332954302227501E+00
              0.363383532607688E+00
             -0.131907212902488E+00
              0.171457928439879E+01
             -0.825454170951279E-01
             -0.478612536911921E+00
              0.451403658352064E+00
              0.658527082462971E+00
             -0.507976223199829E+00
             -0.153502940735498E-01
              0.149327313951517E+01
             -0.318175179557514E-01
              0.795159346440370E+00
              0.251993404065046E+00
             -0.119414673420995E+00
             -0.251370853565601E+00
              0.751591410759095E+00
             -0.900141473446342E+00
             -0.408935693094286E-01
             -0.298714649770845E+00
             -0.628356283295222E+00
              0.172102310753153E+00
              0.364040362712092E+00
             -0.333544018653154E-02
             -0.288777398284470E-01
             -0.620635501434226E+00
              0.243720627957857E+00
             -0.273901270063375E-01
             -0.345839005117567E+00
             -0.318600408222941E+00
              0.283855949284642E+00
             -0.137356548171059E-01
             -0.588263369796089E+00
             -0.163319280542454E+01
              0.878351237461605E-01
              0.256752008904585E+00
             -0.726823253776435E+00
             -0.376808425092984E+00
              0.125199867842062E+01
              0.176267550032905E+00
              0.647503797046133E+00
              0.150518600808409E+00
              0.594757455586919E+00
              0.358694394905621E-01
             -0.607631391780286E+00
             -0.147743098361500E+00
              0.891931746468972E-01
              0.460277735145309E+00
              0.116578627006338E+01
              0.755392577054510E+00
              0.395503470788143E-01
              0.166480318227013E+00
              0.924892759272859E+00
              0.424871329073818E+00
             -0.108269253691733E+01
             -0.427220462236914E+00
              0.188267024188591E+00
              0.152802067969839E+00
              0.386162637921251E+00
             -0.793689836729198E+00
              0.905465743746732E-01
              0.617414064821746E+00
              0.747888679621081E+00
             -0.650497119732334E+00
              0.180541756024573E-01
             -0.352359312358894E-01
             -0.314308402555420E+00
             -0.405864477953602E+00
             -0.191696252438160E+00
             -0.158612657437484E+00
              0.166464940137895E+00
              0.639496922089650E+00
             -0.494287517401071E+00
              0.124118549736028E+01
              0.515330218395963E+00
              0.391302033518043E+00
              0.560778230065364E+00
              0.398443117762669E+00
              0.517013582826306E+00
              0.848609688799984E+00
             -0.722234997228760E+00
              0.963737061256831E+00
             -0.172769433948683E+01
              0.484272003029981E+00
             -0.161325215165276E+01
              0.123609376473860E+01
              0.118893750801274E+01
             -0.131185066117689E+00
             -0.728336894814930E+00
             -0.654567451591573E+00
             -0.838789578647196E+00
             -0.994831422217949E+00
              0.832984751883732E+00
              0.656690602931585E+00
              0.373947189905705E+00
              0.417547856688064E+00
              0.660950490533168E+00
             -0.623647074107813E+00
             -0.229000532581132E+00
              0.822189539636319E+00
             -0.180957233498658E+00
              0.756340645268235E+00
              0.117162126671112E+01
             -0.447516816206993E-01
             -0.114858544657025E+01
              0.647715429104938E-01
              0.295691955627740E-01
             -0.156749288092128E+00
              0.518038140373016E-01
             -0.999688140514956E+00
             -0.162605246902295E+00
              0.198030934136646E+00
              0.196677072975530E+00
              0.755046523350798E+00
             -0.628082357318355E+00
              0.830030369313333E+00
             -0.588716879458043E+00
              0.396702285029241E+00
              0.662807283529129E+00
 
 BEEF-vdW xc energy contributions
           1 :   -10.8404734318462     
           2 :    9.01603961417992     
           3 :   -6.41580342105898     
           4 :    3.98681276833932     
           5 :   -2.13697945100363     
           6 :   0.925382454688952     
           7 :  -0.250222674502998     
           8 :  -6.249349875831101E-002
           9 :   0.188736715912786     
          10 :  -0.260664040042924     
          11 :   0.330603561156074     
          12 :  -0.385336794119803     
          13 :   0.398086249332241     
          14 :  -0.369472640174688     
          15 :   0.314809678746800     
          16 :  -0.247441437554293     
          17 :   0.178683384709998     
          18 :  -0.120254650016081     
          19 :   7.820958950837920E-002
          20 :  -5.354853625312472E-002
          21 :   4.287676902226423E-002
          22 :  -3.993344938116117E-002
          23 :   3.593409903717948E-002
          24 :  -2.669015142270936E-002
          25 :   1.362300526557370E-002
          26 :   2.382620266949687E-004
          27 :  -1.176816497114430E-002
          28 :   1.731823661957677E-002
          29 :  -1.749162665728043E-002
          30 :   1.624099543293767E-002
          31 :   -1.36200155603331     
          32 :  -0.846661143485978     

     Writing output data file ./pwscf.save/
 
     init_run     :     72.02s CPU     74.29s WALL (       1 calls)
     electrons    :    478.61s CPU    505.91s WALL (       1 calls)
     forces       :     32.72s CPU     34.72s WALL (       1 calls)

     Called by init_run:
     wfcinit      :      1.28s CPU      1.32s WALL (       1 calls)
     potinit      :     58.76s CPU     60.32s WALL (       1 calls)
     hinit0       :     10.31s CPU     10.42s WALL (       1 calls)

     Called by electrons:
     c_bands      :     72.92s CPU     72.98s WALL (      13 calls)
     sum_band     :     34.63s CPU     40.30s WALL (      13 calls)
     v_of_rho     :    304.02s CPU    320.43s WALL (      14 calls)
     newd         :     16.09s CPU     21.99s WALL (      14 calls)
     PAW_pot      :      1.20s CPU      1.20s WALL (      14 calls)
     mix_rho      :    102.19s CPU    103.40s WALL (      13 calls)
     vdW_kernel   :     33.50s CPU     33.50s WALL (       1 calls)

     Called by c_bands:
     init_us_2    :      1.02s CPU      1.04s WALL (      27 calls)
     regterg      :     71.29s CPU     71.35s WALL (      13 calls)

     Called by *egterg:
     rdiaghg      :      0.02s CPU      0.03s WALL (     129 calls)
     h_psi        :     65.20s CPU     65.21s WALL (     130 calls)
     s_psi        :      0.89s CPU      0.89s WALL (     130 calls)
     g_psi        :      0.23s CPU      0.23s WALL (     116 calls)

     Called by h_psi:
     h_psi:calbec :      1.01s CPU      1.02s WALL (     130 calls)
     vloc_psi     :     62.95s CPU     62.95s WALL (     130 calls)
     add_vuspsi   :      0.93s CPU      0.93s WALL (     130 calls)

     General routines
     calbec       :      1.19s CPU      1.19s WALL (     147 calls)
     fft          :    266.39s CPU    266.41s WALL (    2755 calls)
     ffts         :     48.56s CPU     48.56s WALL (     507 calls)
     fftw         :     59.91s CPU     59.91s WALL (     623 calls)
 
     Parallel routines
 
     PWSCF        :  20m 1.90s CPU  21m20.83s WALL

 
   This run was terminated on:  16:46:37  20Dec2022            

=------------------------------------------------------------------------------=
   JOB DONE.
=------------------------------------------------------------------------------=
