
     Program PWSCF v.6.7MaX starts on 20Dec2022 at 16:26:11 

     This program is part of the open-source Quantum ESPRESSO suite
     for quantum simulation of materials; please cite
         "P. Giannozzi et al., J. Phys.:Condens. Matter 21 395502 (2009);
         "P. Giannozzi et al., J. Phys.:Condens. Matter 29 465901 (2017);
          URL http://www.quantum-espresso.org", 
     in publications or presentations arising from this work. More details at
     http://www.quantum-espresso.org/quote

     Parallel version (MPI), running on     1 processors

     MPI processes distributed on     1 nodes
     Reading input from hcoh-gas-ensemble.in
Warning: card &CELL ignored
Warning: card / ignored

     Current dimensions of program PWSCF are:
     Max number of different atomic species (ntypx) = 10
     Max number of k-points (npk) =  40000
     Max angular momentum in pseudopotentials (lmaxx) =  3
     file C.pbe-n-kjpaw_psl.1.0.0.UPF: wavefunction(s)  2S 2P renormalized
     file H.pbe-kjpaw_psl.1.0.0.UPF: wavefunction(s)  1S renormalized
     file O.pbe-nl-kjpaw_psl.1.0.0.UPF: wavefunction(s)  2S 2P renormalized

     **************************************************************************
     Initializing libbeef V0.1.2 with the BEEF-vdW functional.
     Citation: Wellendorff et al., PRB 85, 235149 (2012).
     **************************************************************************


     IMPORTANT: XC functional enforced from input :
     Exchange-correlation= BEEF-VDW
                           (   1   4  43  14   2   0   0)
     Any further DFT definition will be discarded
     Please, verify this is what you really want


     gamma-point specific algorithms are used

     Subspace diagonalization in iterative solution of the eigenvalue problem:
     a serial algorithm will be used

 
     G-vector sticks info
     --------------------
     sticks:   dense  smooth     PW     G-vecs:    dense   smooth      PW
     Sum       32603   32603   8143              4201691  4201691  525227
 


     bravais-lattice index     =            0
     lattice parameter (alat)  =      40.1842  a.u.
     unit-cell volume          =   66920.7441 (a.u.)^3
     number of atoms/cell      =            4
     number of atomic types    =            3
     number of electrons       =        12.00
     number of Kohn-Sham states=           10
     kinetic-energy cutoff     =      60.0000  Ry
     charge density cutoff     =     240.0000  Ry
     scf convergence threshold =      1.0E-06
     mixing beta               =       0.7000
     number of iterations used =            8  local-TF  mixing
     Exchange-correlation= BEEF-VDW
                           (   1   4  43  14   2   0   0)

     celldm(1)=  40.184179  celldm(2)=   0.000000  celldm(3)=   0.000000
     celldm(4)=   0.000000  celldm(5)=   0.000000  celldm(6)=   0.000000

     crystal axes: (cart. coord. in units of alat)
               a(1) = (   1.000000   0.000000   0.000000 )  
               a(2) = (   0.000000   1.056871   0.000000 )  
               a(3) = (   0.000000   0.000000   0.975828 )  

     reciprocal axes: (cart. coord. in units 2 pi/alat)
               b(1) = (  1.000000  0.000000  0.000000 )  
               b(2) = (  0.000000  0.946189  0.000000 )  
               b(3) = (  0.000000  0.000000  1.024771 )  


     PseudoPot. # 1 for C  read from file:
     /users/bkreitz1/quantum-espresso/potentials/C.pbe-n-kjpaw_psl.1.0.0.UPF
     MD5 check sum: a169b0ebad56f5ec0d79c4633f80bf22
     Pseudo is Projector augmented-wave + core cor, Zval =  4.0
     Generated using 'atomic' code by A. Dal Corso  v.6.7MaX
     Shape of augmentation charge: PSQ
     Using radial grid of 1073 points,  4 beta functions with: 
                l(1) =   0
                l(2) =   0
                l(3) =   1
                l(4) =   1
     Q(r) pseudized with 0 coefficients 


     PseudoPot. # 2 for H  read from file:
     /users/bkreitz1/quantum-espresso/potentials/H.pbe-kjpaw_psl.1.0.0.UPF
     MD5 check sum: ae98473e6dc62675f0d0baffdab24f65
     Pseudo is Projector augmented-wave, Zval =  1.0
     Generated using 'atomic' code by A. Dal Corso  v.6.7MaX
     Shape of augmentation charge: PSQ
     Using radial grid of  929 points,  2 beta functions with: 
                l(1) =   0
                l(2) =   0
     Q(r) pseudized with 0 coefficients 


     PseudoPot. # 3 for O  read from file:
     /users/bkreitz1/quantum-espresso/potentials/O.pbe-nl-kjpaw_psl.1.0.0.UPF
     MD5 check sum: eef08af8b58d9ec80f8fdb78829eb7cf
     Pseudo is Projector augmented-wave + core cor, Zval =  6.0
     Generated using 'atomic' code by A. Dal Corso  v.6.7MaX
     Shape of augmentation charge: PSQ
     Using radial grid of 1095 points,  4 beta functions with: 
                l(1) =   0
                l(2) =   0
                l(3) =   1
                l(4) =   1
     Q(r) pseudized with 0 coefficients 


     atomic species   valence    mass     pseudopotential
        C              4.00    12.01100     C ( 1.00)
        H              1.00     1.00800     H ( 1.00)
        O              6.00    15.99900     O ( 1.00)

     No symmetry found



   Cartesian axes

     site n.     atom                  positions (alat units)
         1           C   tau(   1) = (   0.5099539   0.5076798   0.4670703  )
         2           H   tau(   2) = (   0.5286995   0.4723694   0.5012469  )
         3           H   tau(   3) = (   0.4707747   0.5856055   0.4798404  )
         4           O   tau(   4) = (   0.4885052   0.5519486   0.5056991  )

     number of k points=     1  Gaussian smearing, width (Ry)=  0.0050
                       cart. coord. in units 2pi/alat
        k(    1) = (   0.0000000   0.0000000   0.0000000), wk =   2.0000000

     Dense  grid:  2100846 G-vectors     FFT dimensions: ( 200, 216, 200)

     Estimated max dynamical RAM per process >       3.16 GB

     Initial potential from superposition of free atoms

     starting charge   11.99994, renormalised to   12.00000

     negative rho (up, down):  1.553E-02 0.000E+00


     %%%%%%%%%%%%%%%%%%%%%%%%%%%%%%%%%%%%%%%%%%%%%%%%%%%%%%%%%%%%%%%%%%%%%%%%
     %                                                                      %
     % You are using vdW-DF, which was implemented by the Thonhauser group. %
     % Please cite the following two papers that made this development      %
     % possible and the two reviews that describe the various versions:     %
     %                                                                      %
     %   T. Thonhauser et al., PRL 115, 136402 (2015).                      %
     %   T. Thonhauser et al., PRB 76, 125112 (2007).                       %
     %   K. Berland et al., Rep. Prog. Phys. 78, 066501 (2015).             %
     %   D.C. Langreth et al., J. Phys.: Condens. Matter 21, 084203 (2009). %
     %                                                                      %
     %                                                                      %
     % If you are calculating the stress with vdW-DF, please also cite:     %
     %                                                                      %
     %   R. Sabatini et al., J. Phys.: Condens. Matter 24, 424209 (2012).   %
     %                                                                      %
     %%%%%%%%%%%%%%%%%%%%%%%%%%%%%%%%%%%%%%%%%%%%%%%%%%%%%%%%%%%%%%%%%%%%%%%%


     Starting wfcs are   10 randomized atomic wfcs
     Checking if some PAW data can be deallocated... 

     total cpu time spent up to now is       71.8 secs

     Self-consistent Calculation

     iteration #  1     ecut=    60.00 Ry     beta= 0.70
     Davidson diagonalization with overlap
     ethr =  1.00E-02,  avg # of iterations =  6.0

     negative rho (up, down):  1.199E-02 0.000E+00

     total cpu time spent up to now is      107.3 secs

     total energy              =     -63.69226924 Ry
     estimated scf accuracy    <       0.39953008 Ry

     iteration #  2     ecut=    60.00 Ry     beta= 0.70
     Davidson diagonalization with overlap
     ethr =  3.33E-03,  avg # of iterations =  1.0

     negative rho (up, down):  1.017E-02 0.000E+00

     total cpu time spent up to now is      139.7 secs

     total energy              =     -63.69435013 Ry
     estimated scf accuracy    <       0.07774660 Ry

     iteration #  3     ecut=    60.00 Ry     beta= 0.70
     Davidson diagonalization with overlap
     ethr =  6.48E-04,  avg # of iterations =  5.0

     negative rho (up, down):  1.060E-02 0.000E+00

     total cpu time spent up to now is      174.1 secs

     total energy              =     -63.69675861 Ry
     estimated scf accuracy    <       0.01680391 Ry

     iteration #  4     ecut=    60.00 Ry     beta= 0.70
     Davidson diagonalization with overlap
     ethr =  1.40E-04,  avg # of iterations =  5.0

     negative rho (up, down):  2.126E-02 0.000E+00

     total cpu time spent up to now is      209.6 secs

     total energy              =     -63.69779454 Ry
     estimated scf accuracy    <       0.00536947 Ry

     iteration #  5     ecut=    60.00 Ry     beta= 0.70
     Davidson diagonalization with overlap
     ethr =  4.47E-05,  avg # of iterations =  6.0

     negative rho (up, down):  2.710E-02 0.000E+00

     total cpu time spent up to now is      244.7 secs

     total energy              =     -63.69775091 Ry
     estimated scf accuracy    <       0.00255589 Ry

     iteration #  6     ecut=    60.00 Ry     beta= 0.70
     Davidson diagonalization with overlap
     ethr =  2.13E-05,  avg # of iterations =  8.0

     negative rho (up, down):  5.463E-02 0.000E+00

     total cpu time spent up to now is      280.4 secs

     total energy              =     -63.69826695 Ry
     estimated scf accuracy    <       0.00128709 Ry

     iteration #  7     ecut=    60.00 Ry     beta= 0.70
     Davidson diagonalization with overlap
     c_bands:  1 eigenvalues not converged
     ethr =  1.07E-05,  avg # of iterations = 20.0

     negative rho (up, down):  5.526E-02 0.000E+00

     total cpu time spent up to now is      320.4 secs

     total energy              =     -63.69838519 Ry
     estimated scf accuracy    <       0.00044617 Ry

     iteration #  8     ecut=    60.00 Ry     beta= 0.70
     Davidson diagonalization with overlap
     ethr =  3.72E-06,  avg # of iterations = 10.0

     negative rho (up, down):  4.407E-02 0.000E+00

     total cpu time spent up to now is      356.1 secs

     total energy              =     -63.69800500 Ry
     estimated scf accuracy    <       0.00023543 Ry

     iteration #  9     ecut=    60.00 Ry     beta= 0.70
     Davidson diagonalization with overlap
     ethr =  1.96E-06,  avg # of iterations = 12.0

     negative rho (up, down):  3.708E-02 0.000E+00

     total cpu time spent up to now is      393.4 secs

     total energy              =     -63.69787678 Ry
     estimated scf accuracy    <       0.00015313 Ry

     iteration # 10     ecut=    60.00 Ry     beta= 0.70
     Davidson diagonalization with overlap
     ethr =  1.28E-06,  avg # of iterations =  7.0

     negative rho (up, down):  2.876E-02 0.000E+00

     total cpu time spent up to now is      428.4 secs

     total energy              =     -63.69779649 Ry
     estimated scf accuracy    <       0.00004268 Ry

     iteration # 11     ecut=    60.00 Ry     beta= 0.70
     Davidson diagonalization with overlap
     ethr =  3.56E-07,  avg # of iterations = 10.0

     negative rho (up, down):  2.390E-02 0.000E+00

     total cpu time spent up to now is      464.2 secs

     total energy              =     -63.69781883 Ry
     estimated scf accuracy    <       0.00003721 Ry

     iteration # 12     ecut=    60.00 Ry     beta= 0.70
     Davidson diagonalization with overlap
     ethr =  3.10E-07,  avg # of iterations =  8.0

     negative rho (up, down):  2.245E-02 0.000E+00

     total cpu time spent up to now is      498.8 secs

     total energy              =     -63.69783413 Ry
     estimated scf accuracy    <       0.00000577 Ry

     iteration # 13     ecut=    60.00 Ry     beta= 0.70
     Davidson diagonalization with overlap
     ethr =  4.81E-08,  avg # of iterations =  2.0

     negative rho (up, down):  2.095E-02 0.000E+00

     total cpu time spent up to now is      532.0 secs

     total energy              =     -63.69783987 Ry
     estimated scf accuracy    <       0.00000332 Ry

     iteration # 14     ecut=    60.00 Ry     beta= 0.70
     Davidson diagonalization with overlap
     ethr =  2.77E-08,  avg # of iterations =  2.0

     negative rho (up, down):  1.993E-02 0.000E+00

     total cpu time spent up to now is      556.1 secs

     End of self-consistent calculation

          k = 0.0000 0.0000 0.0000 (262614 PWs)   bands (ev):

   -28.2664 -17.2815 -12.0445 -11.6294 -10.6731  -5.5225  -3.1339  -1.3434
    -0.4354  -0.2591

     the Fermi energy is    -3.6579 ev

!    total energy              =     -63.69784259 Ry

     total all-electron energy =      -230.308826 Ry
     estimated scf accuracy    <       0.00000091 Ry
     smearing contrib. (-TS)   =      -0.00000000 Ry
     internal energy E=F+TS    =     -63.69784259 Ry

     The total energy is F=E-TS. E is the sum of the following terms:
     one-electron contribution =    -120.84162697 Ry
     hartree contribution      =      62.32757761 Ry
     xc contribution           =     -13.81859015 Ry
     ewald contribution        =      25.33844914 Ry
     one-center paw contrib.   =     -16.70365220 Ry

     convergence has been achieved in  14 iterations

     negative rho (up, down):  1.993E-02 0.000E+00

     Forces acting on atoms (cartesian axes, Ry/au):

     atom    1 type  1   force =    -0.00207465    0.00320058    0.00787632
     atom    2 type  2   force =     0.00015967    0.00012313   -0.00132816
     atom    3 type  2   force =     0.00353130   -0.00596478    0.00807174
     atom    4 type  3   force =    -0.00161633    0.00264107   -0.01461990

     Total force =     0.020370     Total SCF correction =     0.000912

     negative rho (up, down):  1.993E-02 0.000E+00

     negative rho (up, down):  1.993E-02 0.000E+00

     negative rho (up, down):  1.993E-02 0.000E+00

     negative rho (up, down):  1.993E-02 0.000E+00

     negative rho (up, down):  1.993E-02 0.000E+00

     negative rho (up, down):  1.993E-02 0.000E+00

     negative rho (up, down):  1.993E-02 0.000E+00

     negative rho (up, down):  1.993E-02 0.000E+00

     negative rho (up, down):  1.993E-02 0.000E+00

     negative rho (up, down):  1.993E-02 0.000E+00

     negative rho (up, down):  1.993E-02 0.000E+00

     negative rho (up, down):  1.993E-02 0.000E+00

     negative rho (up, down):  1.993E-02 0.000E+00

     negative rho (up, down):  1.993E-02 0.000E+00

     negative rho (up, down):  1.993E-02 0.000E+00

     negative rho (up, down):  1.993E-02 0.000E+00

     negative rho (up, down):  1.993E-02 0.000E+00

     negative rho (up, down):  1.993E-02 0.000E+00

     negative rho (up, down):  1.993E-02 0.000E+00

     negative rho (up, down):  1.993E-02 0.000E+00

     negative rho (up, down):  1.993E-02 0.000E+00

     negative rho (up, down):  1.993E-02 0.000E+00

     negative rho (up, down):  1.993E-02 0.000E+00

     negative rho (up, down):  1.993E-02 0.000E+00

     negative rho (up, down):  1.993E-02 0.000E+00

     negative rho (up, down):  1.993E-02 0.000E+00

     negative rho (up, down):  1.993E-02 0.000E+00

     negative rho (up, down):  1.993E-02 0.000E+00

     negative rho (up, down):  1.993E-02 0.000E+00

     negative rho (up, down):  1.993E-02 0.000E+00

     negative rho (up, down):  1.993E-02 0.000E+00

     negative rho (up, down):  1.993E-02 0.000E+00

     negative rho (up, down):  1.993E-02 0.000E+00

     negative rho (up, down):  1.993E-02 0.000E+00
 BEEFens 2000 ensemble energies
             -0.103360834630863E+01
             -0.350057037315574E-01
             -0.212349810377359E+00
              0.708762469042306E+00
             -0.337457900300214E+00
             -0.253367028659531E+00
             -0.765828131508944E+00
             -0.156785361468012E+01
             -0.571314184623775E+00
             -0.616885517516344E+00
             -0.572793453357841E+00
              0.882885545213392E-01
              0.486519776661718E-01
             -0.683055004255992E-01
              0.651144463663780E-01
              0.754066308871087E+00
             -0.330398928479718E+00
             -0.173842133606086E+00
              0.373305953470677E+00
             -0.178338681026093E+01
              0.907678345196892E+00
             -0.306936486482046E+00
             -0.103340698668705E+00
             -0.148634699699255E+00
              0.352552371047636E-01
             -0.102049590367507E+00
              0.142656213706750E+01
             -0.346648997256774E+00
             -0.139063311297008E+00
             -0.900945609386330E+00
              0.112585485583246E+01
             -0.832717362614259E-01
             -0.674722113026657E+00
              0.302005998743241E+00
             -0.474653630092172E-01
              0.449499401285007E+00
              0.224943338863088E-01
              0.467752763564944E-02
              0.579147357183546E+00
             -0.162564949857629E+01
              0.881246478162065E+00
              0.186776134553346E+00
             -0.188898497427571E+00
             -0.487055976655795E+00
              0.191428382434050E+00
             -0.275944171180487E+00
              0.813770030417189E+00
              0.574150479675675E+00
             -0.316287115246981E+00
             -0.517175051158898E+00
             -0.481031937720390E+00
             -0.595262786048152E+00
              0.337182046290252E+00
             -0.852504677684609E+00
              0.258517908715177E+00
              0.980708695842132E+00
              0.119984531751610E+01
              0.516018401673181E+00
              0.284147420225642E+00
              0.509663170499615E+00
              0.146379430923082E+01
              0.288414920604278E+00
             -0.892397948370656E+00
             -0.159775600266409E+00
             -0.472559207777900E+00
              0.100675697274124E+01
             -0.118423295104569E+01
             -0.942276826879382E+00
             -0.524690888064713E+00
             -0.289145428306403E+00
             -0.647635052196629E+00
              0.447114767020439E+00
              0.218492141644818E+00
              0.259395628289835E+00
             -0.610231817730842E+00
             -0.571175374823023E+00
             -0.938970481952058E+00
              0.520686061086032E+00
             -0.546647954359761E+00
              0.495849610440706E+00
             -0.120243218700994E+00
             -0.462390336131474E+00
             -0.833243294324070E+00
             -0.242890898835288E+00
             -0.273325241008971E+00
             -0.256323572249554E+00
              0.622155944644186E+00
              0.123308875218625E+01
             -0.735305898891134E+00
             -0.129018655770978E+01
             -0.295705566751687E+00
              0.176687400324652E+01
             -0.886066016249347E+00
              0.493244770846166E+00
             -0.183300968248181E+00
             -0.968452637728427E+00
              0.452167745339698E+00
              0.504750826969238E+00
             -0.224752342805819E+00
              0.455181525555693E+00
             -0.407551737307005E+00
             -0.971794608927310E+00
              0.160845706042763E+01
              0.736523036213240E+00
              0.349854812025591E+00
              0.204743993695354E+00
              0.360464564419866E+00
              0.131143659468824E+01
             -0.431167338216183E+00
              0.361538070788703E-01
             -0.223770705803755E+01
              0.303862019579255E+00
             -0.106827173059868E+01
              0.195526272911872E+00
              0.346522385017433E+00
             -0.588684098030438E+00
             -0.809318846872085E+00
              0.479380481434699E-01
             -0.488273817212795E+00
              0.712425166518683E+00
             -0.720953108346592E+00
             -0.134224855611206E+00
             -0.621324942750864E+00
             -0.552095360847566E-01
              0.621052254218228E-01
              0.342881337208787E+00
             -0.707600804210884E-02
             -0.107868479621555E+00
              0.106050094323847E+01
              0.147748674406665E+01
              0.790308744163123E+00
              0.106655797302288E+01
             -0.223196554102445E+00
              0.133670756292128E+00
              0.835696883831176E+00
              0.664059857856616E-01
             -0.122459052456544E+01
             -0.692406889580864E+00
             -0.776889820499801E+00
             -0.474854208853182E+00
              0.398123952218064E+00
             -0.196037100694726E+01
             -0.190779353143065E+00
              0.743415239476680E+00
             -0.653885429283034E+00
             -0.470297289923270E+00
              0.912770162602080E+00
              0.802218028665532E+00
             -0.451254275266991E+00
              0.512561061130157E+00
             -0.392531467555424E+00
              0.611841285816883E+00
              0.127372399214865E+00
              0.179341638430799E+00
             -0.132311170962476E+01
             -0.779126636147236E+00
             -0.138854297315085E+00
             -0.480850465368631E-01
             -0.686560123302804E+00
              0.178144091811861E+01
             -0.188751160104902E+00
             -0.425186012212600E+00
              0.640526037760155E+00
             -0.725085255794510E+00
             -0.595504039348548E+00
              0.516812994162979E+00
              0.185940403039049E+00
              0.159804857478965E+00
              0.246088327582894E+00
             -0.169066747783214E+00
              0.162994413250127E+00
              0.950340058791454E+00
             -0.443705382225854E+00
              0.356830230204729E+00
              0.142600196355366E+01
              0.497112132409654E+00
             -0.716152329666713E-01
             -0.319025308820162E+00
              0.249640447432505E+01
             -0.394298933697869E+00
              0.623699571593762E+00
              0.490979501284587E+00
              0.461163020657142E+00
              0.150687866581521E+01
              0.736637314929538E+00
             -0.917688943441923E-01
              0.392822753191522E+00
              0.828632341600773E+00
              0.621738996302939E+00
             -0.988262011531962E+00
              0.151819604597699E+01
             -0.138583996287584E+01
             -0.181449778365923E+00
              0.908620282770550E+00
              0.252720794284363E+00
              0.849561270237444E-01
              0.453478985195471E+00
              0.245546238380677E+00
              0.525260877945018E+00
             -0.100850648184971E+01
              0.639389887958108E-01
             -0.369870377468913E+00
             -0.103691802394164E+00
             -0.425842567690786E-01
             -0.199431823812602E+00
             -0.103420380959774E+00
              0.133796828501561E+01
             -0.806784787955497E-01
             -0.467861491760500E+00
             -0.211026467126796E-01
              0.223273535978829E+00
             -0.103275574096698E+01
             -0.872236081303053E+00
             -0.544651570168134E+00
             -0.100471558238547E+01
             -0.301549089698866E+00
             -0.645123630943706E+00
              0.303345866264047E+00
              0.270579917229279E-01
             -0.208214642465465E+00
             -0.131662886042707E+00
              0.813821802359431E-01
             -0.239791622154037E+00
              0.103522290042551E+01
             -0.140495562462009E+01
             -0.210741834945382E+00
             -0.226765157061064E+00
              0.252245265950290E+00
              0.323048122916483E+00
             -0.821770235794057E+00
             -0.199627849583801E+00
              0.716119040621011E+00
             -0.318010342009022E+00
              0.201359337623861E+00
              0.551475604361269E+00
             -0.622951268798921E-02
              0.185584591121592E+01
             -0.189555726319089E+00
             -0.564094244180466E+00
              0.863881150761703E-02
             -0.446959919997390E+00
              0.871081490878587E+00
             -0.770153540923167E+00
              0.218090192602666E+00
              0.813860371820896E+00
             -0.215860719656912E+00
              0.188935311942214E+01
              0.205255199815603E+01
             -0.113929815975191E+01
              0.917119235034666E+00
              0.368963108506716E+00
             -0.902325726416877E+00
              0.295583359070990E+00
              0.673676532521617E+00
              0.746731410622558E+00
              0.834581306514357E-01
              0.274556926878718E+00
              0.119351113093070E+01
             -0.367504835362938E+00
              0.142446339705990E+00
              0.110037161696721E+01
             -0.588628014018823E+00
             -0.376601893574680E+00
              0.945816514101409E+00
              0.490571282062418E+00
              0.124692715298395E+01
              0.543743860231892E+00
              0.209433399981446E+00
              0.400682460703958E+00
              0.684177159814669E+00
             -0.822719379506450E+00
              0.110178307717870E+00
              0.423213608859233E+00
              0.163673266412037E+00
              0.384541119564628E+00
             -0.994200592145748E+00
              0.521223593218165E+00
             -0.697636123385978E+00
             -0.489446377843133E+00
              0.296868986315705E+00
             -0.146388293975326E+00
              0.950265892819901E+00
             -0.247937350210873E+00
              0.467485748800186E+00
              0.477312401863939E+00
              0.123945926058643E+01
              0.841875375869128E+00
              0.827536631111671E+00
             -0.716379607042628E-01
             -0.174193896285072E+00
             -0.473619914087264E+00
              0.131217528401106E+01
              0.133092150714904E+01
              0.628513560653156E+00
             -0.454164559266217E+00
              0.795702374634316E+00
             -0.728221812798324E-02
              0.292415216629788E+00
              0.111453962600175E+01
             -0.470529660729726E-01
             -0.163187617680822E+00
             -0.347580572764281E+00
             -0.967753761919034E+00
              0.154946426944348E+01
              0.805815595197867E+00
             -0.103183277938929E+01
             -0.347952658121327E+00
              0.415893269632134E+00
             -0.183073922356328E+00
              0.105716998734558E+01
              0.250044485617606E+00
              0.130680215715359E+01
              0.477115343356735E+00
             -0.391103229330585E+00
              0.302592750551548E+00
             -0.115462922343649E+00
             -0.419155987242746E+00
              0.285209487966045E+00
              0.270166984169428E+00
              0.143315220820668E+01
              0.122889834072920E+01
              0.911822744003552E+00
              0.109311218693445E+01
              0.106340622834223E+00
             -0.413158152563193E+00
              0.209449123676541E+00
             -0.542087855887358E+00
             -0.901362189806296E+00
             -0.921543594960454E+00
             -0.518598491695624E+00
             -0.174678856027649E+01
             -0.590504330165370E+00
             -0.139133704743838E+01
              0.322817253322662E+00
             -0.728586836986507E+00
              0.812245923761737E+00
             -0.157355886292863E+01
             -0.472225101309238E+00
              0.643125660699395E+00
              0.353413116462780E+00
             -0.144955436235405E+01
              0.867778670989715E+00
             -0.452207770092433E+00
              0.895356378704149E+00
             -0.465359175576805E+00
             -0.126604318078467E+01
              0.297488591754421E+00
             -0.106485025262721E+01
             -0.716645942736971E-01
             -0.128130530367344E-01
              0.683248750126810E+00
              0.202069290643809E+01
             -0.700131908579219E+00
             -0.608185964102608E+00
             -0.106154246394222E+00
             -0.137715782601880E+00
             -0.128668684866597E+01
             -0.919463507788895E+00
              0.811206288644492E+00
             -0.300090164224509E+00
              0.341771602707482E+00
             -0.797765671396144E+00
             -0.251123156589358E+00
             -0.674603450715867E+00
              0.772405441017831E+00
              0.222607873039740E+00
             -0.389375992460237E+00
             -0.275195067398974E+00
              0.212104965541851E+00
             -0.134671134894312E+00
              0.651373833356449E+00
             -0.434606349152194E+00
              0.160796802375835E+00
              0.533427261048571E+00
              0.217736060221061E+00
             -0.370248835068206E+00
              0.250121934668948E+01
              0.941699482591555E+00
              0.156272146367986E+00
              0.103098170697049E+00
             -0.972229257118946E+00
              0.529489672139594E+00
             -0.125323021382559E+01
             -0.547657864384234E+00
             -0.963108041664303E+00
             -0.282573065420935E+00
              0.938528239270108E+00
             -0.936274330719710E+00
              0.413880251078112E+00
             -0.563160804570133E-01
              0.281947385323669E-01
             -0.507606377678945E+00
             -0.666366733570561E+00
             -0.835004623459676E-01
             -0.561557258356851E+00
             -0.371941545016083E+00
             -0.629286961920205E+00
             -0.893932186651999E-01
             -0.514358681261225E+00
             -0.788282718364932E+00
              0.364261976777782E+00
             -0.209613108086427E+00
              0.379283107814470E+00
              0.146683541604488E+00
             -0.121150976068967E+01
             -0.830769580821152E+00
             -0.786360228351197E+00
              0.533473574151834E+00
             -0.975833493153537E-01
             -0.101088826087433E+01
              0.903353520331887E+00
             -0.684209335038032E+00
              0.927343919367016E+00
             -0.493564878766503E+00
             -0.802012480070515E+00
              0.413717980895117E+00
             -0.117495571583525E+01
             -0.518041434441824E+00
              0.959761756924745E+00
              0.321892465724203E+00
             -0.678758358983885E+00
              0.899204730815783E+00
             -0.259977268041391E+00
             -0.594038640375743E+00
             -0.491551599245669E+00
             -0.841291421561616E+00
              0.400049569860055E+00
             -0.139974290748683E+01
             -0.124636224488357E+01
             -0.120070413195720E+00
             -0.463572129309936E+00
             -0.969688843864712E+00
              0.122987468668918E+01
              0.221660655556219E+01
             -0.364570164836989E+00
             -0.489422058408806E-01
             -0.986339261414678E+00
              0.106273530396017E+01
              0.352609376654589E+00
             -0.320318885992823E+00
             -0.586655243165831E+00
              0.236836431633652E+00
             -0.974550984785573E+00
             -0.177873750633299E+00
             -0.140747303377325E+01
              0.542786620217958E+00
              0.197137561755524E+00
             -0.875619792616789E-01
             -0.168498531426757E+00
             -0.658173513960975E+00
             -0.202451998924206E+00
              0.219237479167110E+01
             -0.252879715729591E+00
             -0.768917744195610E+00
             -0.110875252653249E+01
              0.222358135327800E+00
             -0.605093942605921E+00
              0.149429651407222E+00
              0.537049021489095E+00
              0.706032304343069E-01
              0.574730186834796E+00
              0.284450393413632E+00
              0.945001684117553E+00
              0.416629281168225E+00
             -0.576646949309386E+00
              0.849826116308996E+00
              0.558704250422189E+00
              0.207311177806574E+00
              0.599826845372587E+00
             -0.484774740578773E+00
              0.115495592094742E+01
              0.407480931632875E+00
             -0.559990607316374E+00
             -0.915907112691884E-01
             -0.260338041979709E+00
              0.260685361350466E+00
             -0.432921155364685E+00
             -0.174775856958812E+00
             -0.211219237156575E+00
              0.131166088551299E+01
              0.944284395548718E+00
             -0.107089671344424E+01
             -0.118296139437875E+00
             -0.827357304868076E+00
             -0.227559271482815E+00
             -0.341662713758147E+00
              0.177694827256632E+00
             -0.663339288344463E-01
             -0.452656282509819E+00
              0.264473782075365E+00
             -0.150474907268317E+00
             -0.130794602491004E+00
              0.140926326766611E+01
              0.252145344954645E+00
             -0.132722384179733E+01
             -0.626901802101246E+00
              0.152651035879216E+01
              0.376673887173883E+00
             -0.132421265445992E+00
              0.177506986526963E+01
             -0.292904649428784E+00
             -0.125973620217238E+00
             -0.184516471351220E+00
              0.258066943300986E+00
              0.516910599631030E+00
              0.423347133886143E-01
              0.459734690465308E+00
             -0.187230576665162E+00
             -0.618183875301194E+00
             -0.622137603680772E+00
             -0.789741468497548E+00
              0.665055809024632E+00
              0.243810714400998E+00
              0.608974804148140E+00
              0.258353955887467E+00
              0.145390635760227E+01
              0.321207171778170E+00
             -0.123126028796488E+01
             -0.534545204757801E+00
              0.649420536958976E-01
             -0.455488879124214E+00
              0.102188664642590E+01
             -0.262207796258135E+00
              0.284282352741093E+00
              0.886179199437291E+00
             -0.130296711212632E+01
              0.239435678037310E+01
              0.313895822231170E+00
              0.384689182755318E+00
              0.607866484193945E+00
              0.676707465464688E-01
             -0.460185386393066E-01
              0.536369421656106E+00
             -0.557261462956641E+00
              0.138591468561238E+01
              0.120979759385240E+01
             -0.622260652874598E+00
              0.282907631549715E+00
              0.116917724714940E+01
             -0.356600269857396E+00
              0.317802645841292E+00
              0.556220203046903E+00
              0.687996411039487E+00
             -0.120330000975921E+01
             -0.104388073147014E+00
             -0.453294914359309E+00
             -0.106062054228772E+00
             -0.104791028465746E+00
              0.865193360332075E-01
             -0.233662171029994E+00
             -0.472710468544816E+00
              0.246283142053690E+00
              0.110900006498647E+00
              0.861593936634933E+00
             -0.737869265374525E+00
              0.708277398415843E+00
              0.812272592989417E+00
             -0.176744830838326E+00
              0.123138759332872E+01
             -0.108428443790055E+01
             -0.167117879485922E+01
             -0.110204175374846E+00
             -0.114291057025280E+00
              0.956977704412409E-02
              0.124278153784689E+01
             -0.324556556881477E-01
              0.679404174562955E+00
              0.946632899946519E+00
              0.633413322227524E+00
             -0.846040347219290E-01
              0.987690696894171E+00
             -0.273730517933014E+00
             -0.620976061297049E+00
             -0.616329314787754E+00
              0.151354714103208E+00
              0.602139608907453E+00
             -0.521912028487899E-01
              0.567702757993696E+00
              0.821652874013257E-02
              0.916191587439552E+00
              0.289155131946032E+00
              0.120788130553608E+00
              0.563448226652064E-02
              0.486345152252656E+00
              0.662359507393419E+00
              0.255561304071168E+00
             -0.558117252832444E-01
             -0.868931720061207E+00
              0.482446432672917E+00
              0.335009888248738E+00
              0.555766907941033E+00
              0.497518305871090E+00
              0.579774880015883E+00
             -0.147933722937909E+00
              0.527603707106014E+00
             -0.462171956740647E+00
             -0.309830182877349E-01
             -0.863213035733836E+00
             -0.567445005593205E+00
              0.702278865860996E+00
             -0.143168367843906E+01
              0.407471438984234E+00
              0.227493913283162E+00
              0.138327742493740E+01
             -0.254209587460058E+00
              0.517947652379273E+00
             -0.189502685137228E+00
             -0.796582766097729E+00
             -0.109336148035927E+01
             -0.225057951311252E+00
             -0.147064620173949E+01
              0.155704891383084E+00
             -0.338431899387656E+00
              0.519787114986206E+00
              0.366526517988815E+00
             -0.450738869824532E+00
             -0.469989566981447E+00
              0.698972261660116E+00
             -0.904737738058796E+00
             -0.209250430934437E+00
             -0.265666149540538E+00
              0.419163890579361E+00
              0.449243836549176E-01
              0.651229821718897E-01
             -0.260037455358873E+00
              0.868278328648450E+00
             -0.924729989140679E+00
              0.129296733911739E+00
              0.962534368576638E+00
             -0.575791303653376E+00
              0.483407457795906E-01
              0.890369786929845E-02
             -0.108121112838421E+01
             -0.657499080239425E+00
             -0.454670183379375E-01
              0.492097416010632E+00
              0.544239770266089E+00
              0.752982549043786E-01
             -0.179843973335988E+00
              0.299359171805519E+00
             -0.676102234138026E+00
             -0.658048324129412E-01
             -0.849194369516177E+00
             -0.413105016442911E+00
              0.803621963661820E+00
             -0.490754908685346E+00
              0.111536224875861E+01
             -0.360499067109307E+00
              0.558526470657500E+00
              0.413482620659466E+00
             -0.966359137813866E+00
             -0.433546696598677E+00
              0.142479473110490E+00
             -0.650175891007429E+00
             -0.676366082591958E+00
             -0.142305103854203E+01
             -0.911749858659067E+00
             -0.806732408669659E+00
             -0.730739751578679E+00
              0.157059686177230E-01
              0.380780846274905E+00
              0.153592672569177E+00
              0.426166260396140E+00
             -0.951510020369978E+00
              0.202912462783102E+00
              0.422150641963788E+00
             -0.111679389925757E+01
             -0.931390552903917E+00
             -0.616718104576545E+00
             -0.507640000889238E+00
              0.253200418390725E+00
             -0.445035580288859E-01
             -0.704550030726409E+00
              0.479962331853621E+00
             -0.355805739286149E+00
              0.849184304587974E+00
             -0.141547954934710E+01
              0.100377051243982E+01
             -0.153721494186622E+00
             -0.709780352947772E+00
             -0.460759650262964E+00
             -0.196299304179539E-01
              0.784675179323372E+00
             -0.113295312833364E+01
             -0.212386500998114E+00
             -0.266060280294745E+00
              0.681651625281925E+00
              0.128613345993806E+01
             -0.160672580193575E+01
              0.149301365849430E+01
              0.649784291783168E+00
             -0.123837598381616E+01
             -0.522803994236108E+00
              0.126924809288376E+01
              0.924144462646618E+00
             -0.329044045054582E+00
             -0.118257766867334E+00
              0.286775173791718E+00
              0.124514703048726E+01
             -0.953567058381143E+00
              0.225775277420597E+00
             -0.116184513207023E+00
              0.449553927907298E+00
             -0.114010910354583E+01
             -0.516303451214976E-01
             -0.458361073064384E+00
              0.782094629926384E+00
              0.626303746342310E+00
             -0.142608398597414E+01
             -0.769691504868441E+00
             -0.342592697596286E+00
             -0.685225291737689E+00
             -0.215130573533060E+00
             -0.319487157563179E+00
              0.740514502539723E+00
              0.715734771545039E+00
             -0.539162202569177E-01
             -0.698876184504972E+00
             -0.137223976274402E+01
              0.804553691975721E+00
             -0.760920502335428E+00
             -0.583085497042823E+00
              0.121507049552121E+00
             -0.584044898697024E+00
             -0.656559390807527E+00
             -0.495701722205610E+00
             -0.805021377823945E+00
             -0.393348097511936E+00
             -0.812990163874826E+00
              0.911068892522547E+00
              0.982177717077949E+00
             -0.156111332810394E+00
             -0.346236758605121E+00
              0.437589444903637E-01
              0.681554673378805E+00
             -0.139568575786074E+01
             -0.389749721055374E+00
              0.823124822441240E+00
              0.111969078359998E+01
             -0.187154878860719E+00
              0.186112633881335E+00
              0.844466687639386E+00
              0.241649906585323E+00
              0.608774423490388E-03
             -0.622477913130606E+00
              0.239219580273315E+00
             -0.538053520984997E+00
             -0.170745223151019E+00
             -0.335360974740553E+00
             -0.241114297430114E+00
              0.366333132405076E+00
              0.128749567528265E+01
             -0.107721580794927E+00
              0.339958666336608E-01
             -0.148272095223844E+01
             -0.296109577048995E+00
             -0.593121642746478E+00
              0.199705350759554E-01
             -0.734645416545151E+00
              0.142758198661107E+01
              0.141167104885429E+01
              0.305600176196910E+00
             -0.351807640396669E+00
              0.275502644391066E+00
              0.356158664234083E+00
             -0.739465411994106E+00
             -0.126078062743826E+00
              0.286454745393055E+00
              0.204953656752051E+00
              0.827881729764160E+00
              0.658923695510949E+00
             -0.351500309046291E+00
              0.381744675612803E+00
             -0.157170299189110E+01
             -0.563063484640776E-01
              0.145568838317658E+01
              0.290884947600114E+00
             -0.241555536729976E-01
              0.438776107615971E+00
             -0.375575284864891E+00
              0.144313142353010E+01
             -0.302866611260895E+00
              0.127497729399864E+01
              0.611829669974077E+00
             -0.711527784250750E+00
              0.531960615239111E+00
             -0.454803981549367E+00
             -0.109008667967474E+01
             -0.127595463325281E+00
             -0.888930498632209E+00
             -0.852649011141891E+00
             -0.268236685938601E-01
              0.582991056617448E+00
             -0.195537313570341E+00
             -0.520501043016981E+00
              0.112476110043686E+00
             -0.107432283362833E+01
             -0.664875944847195E-01
             -0.140449174729893E+01
              0.888880342771871E+00
             -0.773851086182842E-01
             -0.789730164039794E+00
             -0.295672272687747E+00
              0.274113722836214E+00
             -0.589176066257058E+00
             -0.721844095890652E+00
              0.144227520397973E+01
             -0.443919533764324E+00
             -0.649843628983163E+00
              0.495506653104007E+00
             -0.317894714646370E+00
              0.888891639975044E+00
             -0.888567013442731E-02
              0.602752887462761E-01
              0.174051277792897E+01
             -0.177100369031785E+00
             -0.617520486940928E+00
             -0.748047211889576E+00
             -0.859526117398138E+00
             -0.595677786798140E+00
              0.482247895428101E+00
              0.465099892414236E+00
              0.457975482228097E+00
              0.120825057211780E+01
              0.683215360447997E-01
              0.349222627249894E+00
             -0.968172500614811E+00
              0.206554442120765E-01
             -0.292778698172063E+00
             -0.435655264059443E+00
             -0.694667640294870E-01
              0.539762767412234E+00
              0.613838966990130E+00
             -0.354663100711670E-01
              0.183406625609047E+00
              0.459758774859178E+00
              0.586351610369738E+00
             -0.362850625998734E+00
             -0.155864612923933E+00
              0.172801402335443E-01
             -0.426182265190111E+00
             -0.845878489660423E-01
             -0.601820464925261E+00
              0.124531527759923E+01
              0.987593460229730E+00
             -0.266679106991896E+00
              0.242496621628416E+00
             -0.821573494773687E-01
             -0.476972136168730E+00
              0.594923306151017E+00
             -0.150432332036623E+00
              0.576694546823810E+00
             -0.784771197705200E+00
              0.280754175512457E+00
             -0.123930431154902E+00
             -0.875996466313321E+00
             -0.384847524672534E+00
              0.381442612985253E+00
             -0.157477843738101E+01
              0.617038150401427E+00
              0.762923321468131E+00
             -0.152275023473391E+00
             -0.109174711179918E+00
             -0.473109000036649E-01
              0.434914793937247E+00
             -0.539130710762823E+00
              0.505889526038160E+00
              0.522764704592208E+00
             -0.152151201904828E+01
             -0.582559807306431E+00
              0.383435253910421E+00
             -0.209207961798637E+00
              0.754965414287539E+00
             -0.995134891472787E+00
             -0.118579650562539E+00
             -0.646371072064595E+00
             -0.208777192924432E+01
              0.127804533121947E+01
             -0.981678143119184E+00
             -0.106966924599039E+01
              0.101631117448031E+00
              0.208752747307616E+01
              0.100981600047202E+00
             -0.498449514516191E+00
             -0.123484985394970E-01
             -0.762004508233407E-01
             -0.142487009768795E+01
             -0.912695598080816E+00
              0.137838422452956E+01
             -0.176303511290429E+00
             -0.594715644668471E+00
              0.812628745556294E+00
             -0.536295055402682E+00
              0.556266994468663E+00
              0.790156930050067E+00
             -0.893554147502013E+00
             -0.460142706666482E+00
             -0.517972045791395E+00
             -0.260925831704172E+00
             -0.331586303050583E+00
             -0.266842105135860E+00
              0.307210898128913E+00
             -0.564555543986633E+00
              0.455604714555983E+00
              0.908593860005101E+00
             -0.144727391789369E+00
             -0.315259004399089E+00
              0.233932526828109E+00
              0.886033740241739E+00
              0.878307459524088E+00
              0.127662826339422E+00
             -0.150234246663685E+00
             -0.158210704295100E+00
             -0.866589169655770E+00
              0.650681558276432E+00
             -0.416019543609608E+00
              0.349647261226794E+00
             -0.217909179388244E+00
              0.435774411421274E+00
              0.279263283973677E+00
             -0.133078023400875E+01
             -0.423233518067804E+00
             -0.126979246915264E+01
             -0.639816896252006E+00
              0.900705587899753E-01
             -0.308804851803429E+00
              0.553424125638079E+00
             -0.450667307434342E+00
              0.391100256330259E-01
              0.118965332035126E+00
              0.117537458696395E+01
              0.597429446340059E+00
             -0.504800667504197E+00
             -0.172854976545680E-01
              0.240516996801905E+00
              0.598751633850237E+00
              0.600401056047417E-03
              0.903248007812802E+00
              0.463763664180018E+00
              0.146080096276447E+01
              0.725651507036200E-01
              0.103093249209307E+01
             -0.434728129252201E+00
             -0.644210412438990E+00
              0.664215116707974E-01
              0.161494816965359E+00
              0.399211186686475E+00
             -0.273600394428120E+00
             -0.197089022776025E+00
              0.367840905102105E+00
             -0.758038281766837E+00
             -0.938570981152266E+00
              0.127407264428756E+01
             -0.101514593769574E+00
             -0.625687769515715E+00
             -0.842058991928085E-01
             -0.230408215454261E+00
              0.664665951830117E+00
              0.593667284627412E+00
             -0.317318890552873E+00
             -0.197283240750332E-01
             -0.431158604265894E+00
             -0.567741688993302E+00
             -0.413971301261531E+00
             -0.158366481362027E+01
             -0.114482274234606E-01
             -0.107064917895618E+01
             -0.947888696353739E+00
             -0.631317273354387E+00
              0.343809136749020E+00
             -0.633069439839880E+00
              0.375630828578655E+00
             -0.102223028446069E+01
             -0.191657733691830E-02
             -0.688089292392822E+00
              0.102228969408650E+00
              0.128689192080101E+00
              0.539124544302247E+00
             -0.326081938415907E+00
             -0.311662651850778E+00
              0.493488956203446E+00
              0.973407136236442E+00
              0.519415930368536E+00
              0.173436858656567E+00
             -0.118699052199705E+01
             -0.235804465079322E+00
             -0.447381449561467E+00
             -0.101155138686093E+01
              0.696423301344472E+00
             -0.552863209575866E+00
             -0.120347104519054E+00
             -0.427249541367885E+00
             -0.162254086826939E+01
              0.907523567884513E+00
             -0.288757828440506E+00
              0.631266422084491E+00
             -0.120577247629795E+01
              0.105115247133732E+01
              0.865338081687606E-01
             -0.437083287551723E+00
              0.139693080495073E+00
             -0.348426775542237E+00
             -0.104905772285698E+01
              0.288728336380221E+00
              0.579233104439245E+00
             -0.622830240264172E-02
             -0.557439462058095E+00
             -0.232922120777444E+00
              0.325178595812688E+00
              0.582539094332573E+00
              0.101359420250262E+01
              0.369379291874990E+00
             -0.378232561980974E+00
              0.156785792794742E+01
              0.377307535422532E+00
              0.735176886234938E+00
             -0.251044346387792E+00
              0.487449766754479E+00
              0.357905118567899E+00
             -0.999086452379299E+00
             -0.359705951185052E+00
             -0.639805459733142E+00
             -0.629302265103208E+00
             -0.173956228995187E+00
             -0.163104140581385E+00
             -0.708207815156572E+00
             -0.181532036099614E+01
             -0.440755277270157E+00
              0.246104614832667E+00
              0.934093699626786E-01
              0.222747204114773E+00
              0.686513901256837E+00
              0.211397192315254E+00
              0.507569410751752E+00
             -0.719798099574271E+00
              0.702532867217228E+00
             -0.667894508876488E+00
             -0.110679215667519E+01
              0.315941974708206E+00
             -0.658098910729326E+00
             -0.661614744368088E+00
             -0.258442864453093E+01
             -0.126785609554588E+00
              0.135163512021802E+01
              0.674245449436995E+00
             -0.162273661906045E+00
             -0.168584809678140E+00
              0.648629134857448E+00
              0.103652184642009E+01
             -0.629392539291748E+00
             -0.211879056425494E+00
             -0.572567217394021E+00
             -0.547890101461020E+00
             -0.502318445380805E+00
              0.204142416878069E+00
              0.114843436162700E+01
             -0.106459677115658E+01
             -0.876600025699441E+00
              0.506666189801130E-01
             -0.228050333837190E+00
             -0.298139389744982E+00
             -0.146286849509761E+01
              0.976132300265313E+00
              0.332272100764094E+00
              0.126952969724944E+00
              0.851515338844451E+00
             -0.514596668585192E+00
              0.551327819361749E+00
              0.468290902784153E+00
              0.539851254598371E-01
             -0.136041929787496E+00
              0.154936227267278E+00
             -0.248276465751627E+00
              0.825806278603873E+00
             -0.671219297612739E+00
              0.730581413777263E+00
              0.155755249617883E+00
              0.255438378872897E+00
              0.323473347245578E+00
             -0.130751824815942E+01
              0.139542185626492E+00
             -0.106788148735045E+01
             -0.790680875236070E+00
             -0.784631905483753E+00
             -0.830674797853965E+00
              0.160449861041929E-01
              0.286463922772155E+00
              0.799993548146555E+00
              0.128958887190335E+00
              0.230890852919630E+00
             -0.113396721506538E+01
             -0.463960234399321E+00
              0.521354450525415E+00
             -0.335842448382984E-01
             -0.444651619164347E-01
             -0.154251199891450E+00
              0.591008994075278E+00
             -0.147647883469917E+01
              0.221167485421218E+00
              0.362758463875299E+00
              0.646023002129962E+00
              0.614046842981505E+00
             -0.921878029568311E+00
              0.236507875638077E+00
              0.100180680812252E+00
              0.119087362899526E+00
              0.650538728069785E-01
             -0.325501607602103E+00
             -0.684289155993637E+00
              0.279119747923840E+00
              0.949956294342156E+00
             -0.394235872683275E-01
              0.215270788736401E+00
              0.192364112152578E+00
             -0.490520063137991E+00
             -0.504314942122840E+00
             -0.197411124013270E+01
             -0.633207229386136E+00
             -0.918029571320748E+00
             -0.117522464718268E+00
             -0.108965843516586E+01
              0.123148781566310E+01
             -0.539468210648919E+00
             -0.877680251266060E+00
             -0.254989951208262E+01
              0.109678192944539E+01
              0.234296640992616E+00
              0.103075142473980E+00
             -0.983445767218666E+00
              0.689912935447792E-01
             -0.246286252390505E+00
             -0.506401936303445E+00
              0.128159463804516E+00
              0.515277982008511E+00
              0.931132142639988E-01
             -0.311690666635144E+00
              0.379568111188249E-01
              0.125370904915583E-01
              0.198969264787925E+00
             -0.107797920477071E+01
              0.117141416153086E+01
             -0.671040265241061E+00
             -0.422760493267653E+00
             -0.803392098365029E+00
             -0.172532615227063E+01
              0.893841866638863E-01
             -0.892652258085825E+00
             -0.319262419593484E+00
              0.505979576725546E+00
             -0.422948823945935E+00
             -0.158725872311630E+00
             -0.201730630698001E+00
             -0.360062891383977E+00
              0.464660429457436E-01
              0.833612258615248E+00
             -0.837806135709248E+00
              0.165793961156594E+01
             -0.379380686925130E+00
              0.539499117569458E+00
             -0.262144296447234E+00
              0.207742014776930E+00
             -0.200202318765646E+00
              0.732078263352309E+00
              0.103684907877059E+01
              0.294103747859754E+00
              0.771500405538250E+00
             -0.498031904480680E+00
             -0.984976637315170E-01
             -0.404831723417058E+00
              0.102250511277856E+01
              0.888370331298223E+00
              0.651112142509655E+00
             -0.221319410828695E+00
             -0.423538784813551E+00
              0.392354484249742E+00
             -0.448875330596161E+00
             -0.237180402257687E+00
             -0.104312179532684E+00
             -0.560200029776306E+00
              0.810550444525414E+00
             -0.165313290877968E+00
              0.587957857733609E+00
              0.326868011267631E+00
              0.258667033823571E+00
             -0.560699185114502E+00
              0.442278189246136E+00
             -0.226144860423259E+00
             -0.118939017877956E+00
             -0.187901197424356E-01
             -0.802812215558784E+00
              0.126719447767707E+01
             -0.456914821242410E+00
              0.134135993184215E-01
              0.384238118125605E+00
              0.323747562442831E+00
              0.123557640197716E+01
             -0.361850544498252E+00
              0.122903133491836E+01
              0.109096135771852E+01
             -0.153244495941720E+01
              0.126709525154343E+00
             -0.302996844486811E+00
              0.178934506826211E+00
              0.701483631575899E-01
              0.327367300126160E+00
              0.104003472488754E+01
              0.157048558202589E+01
             -0.120866965249467E+01
              0.124394284926160E+01
             -0.160432043663981E+01
             -0.135663083490837E+01
             -0.225554813336409E+00
              0.225222524028585E-01
              0.126079134323816E+01
              0.545015318143443E+00
             -0.243026685508913E+00
             -0.138111570625110E+01
              0.108538235868248E+01
             -0.679767463752032E+00
              0.210008801592849E-01
             -0.699841096845712E-01
              0.210786590506870E+01
             -0.383429991235841E+00
             -0.170262856717905E+01
              0.498369171599709E+00
             -0.263092099263817E+01
              0.211456137013919E+00
             -0.624462981916374E+00
             -0.274119591650413E+00
             -0.431074912549088E+00
             -0.961012375293546E+00
              0.605907598783353E+00
             -0.573970524836719E+00
             -0.211236874156869E+00
             -0.123167365986251E+01
             -0.762660507860211E-01
             -0.864056723863023E+00
             -0.123774949155494E+01
             -0.177213189197251E+01
              0.135965503315248E+00
             -0.572707871092217E+00
              0.113590820387881E+00
             -0.197158537493079E+00
             -0.133450556653056E+01
             -0.102795577009821E+01
             -0.912601354556934E+00
             -0.918914136671138E+00
              0.843930516826301E+00
              0.124616725236828E+00
             -0.792937569074174E+00
             -0.386000502705848E+00
             -0.437843678370992E+00
              0.651346681759837E+00
             -0.521837526809040E+00
             -0.103376838337654E+00
             -0.472825968582304E+00
             -0.649378277628381E+00
             -0.656027897900908E+00
              0.664719033152346E+00
             -0.207074463989141E+00
             -0.146729361332284E+01
              0.127818035943016E+01
              0.743925188816416E+00
              0.657002966437057E-01
             -0.129068833862618E+01
             -0.122269703719384E+01
              0.110170932980974E+00
              0.230766973041021E-01
             -0.544071011360485E+00
             -0.741154294518051E+00
              0.517240368493514E+00
             -0.920448095125774E-01
              0.434834834121521E+00
              0.767447957207985E+00
              0.581865270811636E+00
              0.416683379203257E+00
              0.357509551999366E+00
             -0.366104358191540E+00
             -0.235244579597708E+00
             -0.288866312273699E+00
             -0.613608442748856E+00
             -0.782055870164626E+00
             -0.997440978690711E+00
             -0.591283956210788E+00
             -0.197906111139126E+00
             -0.122883883970718E+01
             -0.251243360685738E+00
              0.542520800988158E+00
             -0.132061765701602E+01
              0.561168404864696E+00
              0.442944921922885E+00
             -0.115458260049399E+01
             -0.913043641771481E+00
             -0.354173333986850E+00
              0.223563151696294E+00
             -0.665334442187393E+00
              0.121018129586182E+01
              0.107416852379348E+01
             -0.124750504061579E+01
              0.715546742910501E+00
              0.589350978269144E+00
              0.153268745922921E+00
              0.320705056029725E+00
             -0.683441262106136E+00
             -0.251918521753518E+00
              0.891730858957249E-01
              0.322047588538477E+00
              0.684988997978780E+00
             -0.886544874185038E+00
             -0.157150181349429E+00
              0.270938494644021E+00
              0.101031012728839E+00
             -0.547429627421909E+00
              0.299685339586842E+00
             -0.419665745824672E+00
             -0.281362847556756E+00
              0.262990658690132E-02
             -0.100087462754790E+01
              0.320405372900523E-02
             -0.189498902931252E+00
             -0.244861641483441E+00
              0.210937236915698E+00
             -0.867562608629145E+00
              0.921858340320702E+00
             -0.356498317963930E+00
             -0.216063618545126E+01
             -0.140102029823768E+01
              0.572103418319091E+00
             -0.649454506930962E+00
             -0.351508608122057E+00
             -0.404274462406880E+00
             -0.294872888451748E+00
             -0.167347881158556E+01
             -0.458464186120189E-01
             -0.100946385232135E+01
             -0.517173791932593E+00
              0.358229311797732E+00
              0.125718416858960E+01
              0.571425280393357E-01
              0.430465522678687E-01
              0.970936731420584E+00
             -0.894523850849803E+00
              0.472839317895603E+00
              0.110945185225236E+00
             -0.823907945103579E+00
             -0.455719854019759E+00
              0.325657845108984E+00
              0.432943442890950E-01
              0.251548583740601E+00
              0.237495488082348E+00
             -0.382894402629945E+00
             -0.499992939462892E+00
             -0.803805343509737E+00
              0.796183908360011E+00
             -0.109620814475682E+01
             -0.802130083550515E+00
              0.238338005669929E+00
             -0.138694781045195E+01
              0.350816210006077E+00
              0.949002328384431E+00
             -0.177265604520213E+00
              0.291611008852228E+00
             -0.515395953107676E+00
             -0.355603886529264E+00
              0.174932272501224E+00
              0.584832062413043E+00
             -0.599115937142409E+00
              0.374643245596410E+00
             -0.228755519020061E+00
              0.684123485508525E-01
              0.319916080645662E+00
              0.191125815194010E+00
             -0.176147058640223E+00
             -0.105795258160777E-01
              0.229572302142637E+00
              0.443407169251359E+00
             -0.114114754654941E+01
             -0.149535102820870E-01
              0.877795234361762E+00
             -0.146286133184371E+01
              0.536284849626890E+00
             -0.185807331525238E+01
             -0.173521778323315E+00
             -0.234466233459987E+00
             -0.501417175533163E-01
             -0.182481396475357E+00
             -0.459824857280183E+00
             -0.139959680144287E+00
              0.239101021526726E+00
             -0.379220896603285E+00
              0.180395477129178E+00
              0.145885232840205E+01
             -0.940867010886580E+00
             -0.419874005889682E+00
              0.658640463794108E+00
              0.340953019017471E+00
              0.667030903559997E+00
              0.293588440857713E+00
              0.319754697107695E+00
             -0.238252132257943E+00
             -0.808098824815263E+00
             -0.718131993748824E+00
             -0.523531353675738E+00
              0.790591037198096E-01
             -0.680651976097820E+00
             -0.185519779805908E+00
              0.102709054093450E+00
              0.393349510302308E+00
             -0.112814735235649E+00
              0.943497637215095E+00
             -0.101992232859485E+01
             -0.318201271252363E-01
             -0.129174836540042E+00
              0.507024482051515E+00
             -0.709354636913497E+00
             -0.458380440429835E+00
              0.263597552215593E+00
              0.770420947487764E+00
              0.119788230530622E+01
              0.517055575325912E+00
              0.737681685476499E+00
             -0.414005181537405E+00
              0.101402296128544E+01
              0.102705244092616E+01
             -0.523212249707061E-01
              0.530640409545759E+00
              0.626112818280656E+00
             -0.341289325378946E+00
              0.195604466192520E+00
              0.106745735732645E+01
             -0.357617145679268E+00
             -0.134097699853438E+00
             -0.102408894679439E+01
              0.380584382057156E+00
             -0.215775233371202E+00
              0.340183574891166E+00
              0.462814465976602E-01
             -0.641754713605316E+00
              0.747722350299419E+00
              0.644729414735034E+00
             -0.488455526592828E+00
              0.269994321502206E+00
             -0.946293310784050E+00
             -0.883764578941923E+00
              0.402452933105730E+00
             -0.111200907502818E+01
             -0.553349136656311E+00
              0.403996159564635E-01
              0.138753598275069E+01
             -0.355355680909396E+00
             -0.167348882640570E+00
             -0.308169492963275E+00
              0.182038607705654E+01
              0.310370046175537E+00
             -0.678013298966508E+00
              0.112945763664160E+01
              0.100725288891540E+01
              0.532764711922847E+00
              0.128376616141144E+01
              0.137904212629480E+01
             -0.841876651654551E-01
             -0.483894659084490E+00
             -0.432483732827594E+00
              0.433171958371722E+00
              0.623093863653893E+00
             -0.108941616370004E+00
             -0.380927020471032E+00
             -0.932020627034565E+00
             -0.366744248518496E+00
             -0.754586158624237E+00
              0.536079727394525E+00
              0.270803001449543E+00
              0.963929192474081E+00
              0.191067942829950E+00
             -0.380344106793746E+00
             -0.144794667215127E+00
              0.652209963729837E+00
              0.173863571516307E+00
              0.972081241059334E+00
              0.907794288622432E+00
             -0.159287290419103E+00
             -0.127849414388733E+00
             -0.161558811087104E+01
              0.807645361423003E+00
             -0.240261505396013E-01
              0.899176757196232E+00
             -0.399756231694746E+00
             -0.105958083133203E+01
              0.308027007223987E+00
              0.116860154094908E+01
             -0.413898742768770E+00
              0.109156611553164E+01
             -0.116480332616552E+01
             -0.414773580751033E+00
             -0.137114895256126E+01
              0.294850710973304E+00
              0.101016265718046E+00
              0.117156534385052E+00
             -0.100086315090198E+01
              0.147993014465104E+01
              0.868283221372429E+00
              0.998456986149909E-01
             -0.840264050685525E+00
              0.326279669279992E+00
             -0.324660697542256E+00
             -0.222819481612415E+00
             -0.421333463072260E+00
              0.285265949500651E+00
             -0.243336467965897E+00
             -0.297038614598601E+00
              0.372258124992475E+00
              0.377842337856383E+00
             -0.145178126429627E+01
              0.313894656380864E+00
              0.106763386139720E+01
              0.686951805211947E+00
             -0.225205335815699E+00
             -0.133143437917511E-01
             -0.597042401945006E+00
              0.915967206840261E+00
              0.169751313935993E+00
             -0.550564110206615E-01
             -0.895627515050688E-01
              0.177428347135642E+01
             -0.941993038801519E-01
              0.412067329285507E+00
              0.118941616461990E+01
              0.157422519295764E+01
              0.974006421710851E+00
              0.653102248519689E+00
             -0.101057668104463E+01
             -0.746590392788784E+00
              0.592137951853164E+00
              0.449149091409415E-01
              0.497862213804403E+00
              0.208411110089923E+00
              0.103160004704343E+01
             -0.128464248612730E+01
             -0.799293592962272E+00
             -0.172833320068704E+00
             -0.140963572657268E+01
              0.300194051804606E+00
              0.718944605205287E+00
              0.534447508230462E-01
             -0.335673335446931E+00
              0.338231689177705E+00
              0.220055943010098E+01
              0.505921409472085E+00
              0.287570964188033E+00
             -0.785358884881430E+00
             -0.967753084263048E+00
             -0.218668071312338E+00
              0.449878244078559E+00
             -0.962183747370462E-01
              0.396028564209369E+00
              0.562942540644974E+00
             -0.102435036136470E+01
              0.438004058939170E+00
              0.592839671781022E+00
              0.942491164439954E+00
             -0.163405177443727E+00
              0.661717455605970E-01
             -0.118050419256090E+00
             -0.740369491106283E+00
             -0.118095876570006E+01
              0.125763871927573E+01
             -0.162946044317977E+00
             -0.876278928294329E+00
              0.109405664712125E+00
             -0.483646460459051E+00
              0.139110462809951E+01
             -0.356239968268763E+00
             -0.600254023660463E+00
              0.576956684017104E+00
             -0.241514974294764E+00
              0.756204179297326E+00
             -0.354389350372664E-02
              0.152195071390690E+01
              0.825138080554781E+00
              0.158610760601751E+00
             -0.631656134715372E+00
              0.456696284398382E+00
             -0.880771577452913E+00
             -0.814304141369089E-01
              0.104518634284923E+01
             -0.408349614560728E+00
             -0.715646275423993E+00
             -0.359053330002117E+00
              0.841533775016389E+00
              0.203560837306703E+00
             -0.133073576583853E+01
              0.558294416177996E+00
              0.128707198862623E+00
              0.168706786122022E+00
             -0.785720988767839E+00
              0.158033504328406E+00
              0.564279637265928E+00
              0.770701195443233E+00
              0.102804231451543E+01
              0.557078759122791E+00
              0.133419873723238E+00
             -0.877060865011402E+00
             -0.675671605201536E+00
             -0.108044192003265E+01
             -0.206599961380316E+00
              0.550509560204018E+00
             -0.191979799621413E-01
              0.842655783552473E+00
             -0.512295541226255E+00
              0.283131742101626E+00
             -0.346009737680091E+00
             -0.429882680481016E+00
              0.944657135845635E+00
              0.906374569099739E-01
              0.989318500249517E+00
              0.860594686196876E-01
              0.334778453876831E+00
             -0.254357711004333E+00
              0.980967650893207E+00
             -0.238280577706264E+00
             -0.149266237209599E-01
             -0.126101714313188E+01
             -0.126037515330675E+00
              0.113603027235287E+01
              0.106671692463840E+01
              0.384467382114651E+00
             -0.244656381296480E+00
              0.600953735879521E-01
             -0.360367422759295E+00
             -0.273447792385939E+00
              0.143091187285420E+01
              0.103025999084403E+00
             -0.453972251042184E+00
             -0.173621733638111E+01
             -0.731870876549137E+00
             -0.605824874113567E+00
             -0.100656029466153E+01
             -0.958181882032726E+00
             -0.116206281406832E+01
             -0.723884428525593E+00
             -0.465885177569849E+00
             -0.766377301500353E+00
              0.715386826744614E+00
             -0.310241155499446E+00
             -0.143686015925559E+01
              0.676509355793093E+00
             -0.537498270310037E+00
             -0.128640668577246E+01
              0.163862014200690E+01
             -0.405377472058579E+00
              0.254401702382584E+00
              0.628002360464740E+00
              0.185120227819106E+00
              0.404584308741603E+00
              0.118864791492173E-01
              0.167001985485865E-01
             -0.195651041203934E+00
             -0.117711890490676E+01
              0.173673888536793E+00
             -0.197007240368098E+01
              0.113767146466753E+01
             -0.647875540483261E+00
             -0.279786751012388E+00
             -0.323786206226910E+00
              0.336944887013878E+00
             -0.267708631303349E+00
              0.472860081475358E+00
             -0.936180163957670E+00
              0.605902653064603E+00
              0.676935742035535E+00
              0.173649475686420E+00
              0.140246347022790E+00
              0.346449795720435E+00
              0.146674269006907E+00
              0.501796625082522E+00
             -0.876595716504935E-01
             -0.115558089963037E+01
              0.160619240212957E+00
             -0.553113072913842E+00
             -0.456218512764321E-01
              0.872625365319355E+00
             -0.130320282780993E+01
              0.252831477333313E-01
              0.465424738879712E-01
              0.146508219680136E+00
              0.502097698662302E+00
             -0.212000851450273E+00
              0.136410133805294E+01
              0.633798484728674E+00
             -0.246413669536578E+00
             -0.166475012691150E+00
              0.935596682073490E-01
              0.128162511023805E+01
             -0.804365871626826E+00
             -0.164626705415614E+01
              0.467265203420764E+00
             -0.111915784591869E+00
             -0.241806863964553E+00
              0.309084494603819E+00
              0.123368612005886E+01
              0.684294315195647E+00
             -0.284789987006197E+00
             -0.864189233577743E+00
             -0.191193818102826E+00
              0.446332156774927E+00
             -0.282428900781789E+00
             -0.122263370441502E+01
             -0.131568543998399E+00
             -0.156516864692538E+01
             -0.821513105754606E+00
              0.138599021936332E+01
             -0.839680664235439E+00
             -0.114802511265168E+01
             -0.868802530044504E+00
             -0.637128323984233E+00
              0.540276928638728E+00
              0.136991041134702E+01
             -0.136019758210097E+00
              0.431971488828459E+00
             -0.314327492870063E+00
             -0.109191168335924E+01
              0.840215340468203E+00
             -0.774436914916702E+00
              0.423298423363956E+00
              0.476965412548832E+00
             -0.242540214512944E+00
              0.634019701090271E+00
              0.640568685483511E+00
              0.192076301391028E+01
             -0.189007403539724E+00
             -0.875566524188589E+00
             -0.107988612379584E+01
             -0.295918121273983E+00
             -0.648879731462283E+00
              0.153619894998918E+01
             -0.733248201015606E+00
              0.159241179372145E+00
              0.530719498490733E-01
             -0.327755809536542E+00
             -0.136630847195968E+01
             -0.107228698159606E+00
              0.162102175342700E+01
              0.330152980201494E+00
              0.127077127472625E+00
             -0.920347286480162E+00
             -0.876990991820792E+00
             -0.271287938783507E+00
              0.732806571164130E+00
             -0.428872777071626E+00
              0.163987214366954E+01
             -0.740563822297385E+00
              0.306419894903242E+00
             -0.245270623686460E+00
             -0.991920446677898E+00
              0.105676721185223E+00
             -0.909457332600155E+00
             -0.119421870431384E+01
              0.160799744666768E+00
              0.225799703388070E-01
              0.790423758083866E+00
              0.429792483719920E+00
             -0.563236791324989E+00
              0.366369761674916E+00
             -0.140133375917948E+01
             -0.780520979857911E+00
              0.151225759321043E+01
              0.763357849464397E-01
             -0.104166152354038E+00
             -0.413985400528437E+00
             -0.356843234454551E-02
             -0.183408274153518E+00
              0.146147271249730E+01
              0.659303321014266E+00
             -0.158257988677357E+00
             -0.233700912893529E-01
             -0.629334615429885E+00
             -0.227165012565403E+00
             -0.102142022442462E+01
              0.836902040380309E+00
              0.107421489592435E+00
              0.138950642390417E+00
              0.282296914757914E+00
             -0.216135619506715E+00
             -0.361618212912180E+00
              0.997579210421099E-01
             -0.179218166994189E+01
             -0.176695569899189E+00
             -0.137633334065178E+00
             -0.103872600144185E+00
              0.818010634924454E+00
              0.103092953082651E+01
              0.281698122348248E+00
             -0.151029279326871E+01
              0.103942906701853E+01
             -0.395642555094613E+00
             -0.601048011632428E+00
             -0.141570355464978E+01
             -0.463624278013491E+00
              0.991373380362348E+00
              0.529792305624174E+00
              0.269219441638266E+00
              0.561834581141278E+00
             -0.906393414759309E+00
             -0.779540270278117E+00
              0.101181145390912E+01
              0.675329193265185E+00
              0.773978447459288E+00
              0.969709626163571E-01
              0.162585941621176E+00
              0.857015231570296E+00
              0.160961264357442E+01
             -0.306831734263953E+00
              0.642439999170236E+00
             -0.419842161385872E+00
             -0.713229741018059E+00
             -0.552887849428395E+00
             -0.520438337673069E+00
             -0.226681837336755E+00
             -0.777366862337560E+00
             -0.332465385079733E+00
             -0.210252700739265E+01
              0.510739342492371E+00
              0.455294792129455E+00
             -0.432486576582263E-01
             -0.606107861678236E+00
             -0.314338245304081E+00
             -0.900419134153537E+00
              0.105889645562426E+00
              0.129107297689293E+01
             -0.300420877280025E+00
             -0.302740380625212E+00
              0.294982829655908E+00
             -0.809073174030785E+00
              0.140886337268366E+01
              0.268923365963532E+00
              0.120719603751777E+00
              0.858463363192362E+00
             -0.749077767929975E-01
              0.958873594853891E+00
              0.315965749021765E+00
             -0.520459298784210E-01
              0.224318170483289E+00
             -0.145099603588655E+00
              0.111557328905511E+01
              0.113155631584940E+00
              0.329469555508813E+00
             -0.136338512966921E+00
              0.171590430326693E+00
             -0.153050692636519E+01
             -0.590291333796618E+00
             -0.792936751227186E+00
              0.841941830909064E+00
             -0.569361563503728E+00
             -0.924700226604942E+00
              0.963564160125786E+00
             -0.236990035111185E+00
              0.682102893017726E+00
             -0.145837581615991E+01
              0.319551502019681E+00
              0.733778305651092E-01
              0.896744657393924E-01
             -0.207023607257190E+00
             -0.961887528080716E-01
              0.815900112087562E+00
              0.490779469411491E-01
             -0.836296915508965E+00
             -0.342966519757052E+00
              0.319627864696727E+00
             -0.188305075646146E+01
             -0.143428873146871E+01
              0.201667266154928E-01
              0.246154472891689E+00
             -0.809407435545753E+00
              0.164619438479008E-02
              0.168936304204224E+01
              0.501933948776820E+00
             -0.880844862312994E+00
              0.125663640781995E+00
             -0.165723676126496E+00
              0.205616126474788E+00
             -0.564345106689735E+00
              0.353139800778944E+00
              0.382654653051318E+00
             -0.146720461054032E+00
              0.182427430796097E+01
             -0.811790068732936E-01
             -0.508698417870038E+00
              0.492564805844236E+00
              0.696190384942264E+00
             -0.540140189512416E+00
             -0.136584966873883E-01
              0.158629179625081E+01
             -0.331716828978070E-01
              0.835207235509452E+00
              0.270101899521435E+00
             -0.128700081639492E+00
             -0.253313631145354E+00
              0.794374607693158E+00
             -0.962921978657801E+00
             -0.450053152051928E-01
             -0.319050222123232E+00
             -0.668149702379786E+00
              0.173633705722179E+00
              0.384325808378621E+00
             -0.139231321696123E-01
             -0.342006887342947E-01
             -0.658198960949397E+00
              0.255716808744634E+00
             -0.237914835087474E-01
             -0.365384840858753E+00
             -0.339668784264431E+00
              0.301876438107377E+00
             -0.136331391301265E-01
             -0.628112191818402E+00
             -0.173458150031543E+01
              0.895634538754075E-01
              0.270943661315147E+00
             -0.779066405397427E+00
             -0.402189218608724E+00
              0.133062083783659E+01
              0.189000889214007E+00
              0.700386617788418E+00
              0.164819610602625E+00
              0.639628550157860E+00
              0.364835017084637E-01
             -0.649670939291435E+00
             -0.162012320110807E+00
              0.905675187527422E-01
              0.492148792551232E+00
              0.123977823174105E+01
              0.799801420344344E+00
              0.425513883578690E-01
              0.170318550121994E+00
              0.980012273828311E+00
              0.453839553872000E+00
             -0.114757565146813E+01
             -0.452583581775938E+00
              0.199838630994373E+00
              0.165511085061750E+00
              0.411727916651183E+00
             -0.842137173453874E+00
              0.922139750232061E-01
              0.657037042226899E+00
              0.793893879835023E+00
             -0.690271157248882E+00
              0.240788327729797E-01
             -0.383364300497799E-01
             -0.340981658947216E+00
             -0.423458228110001E+00
             -0.196636619190140E+00
             -0.169745429093981E+00
              0.177042992890596E+00
              0.678837580476883E+00
             -0.524659835686700E+00
              0.131703487373403E+01
              0.548974633329766E+00
              0.419337014684756E+00
              0.596120001033616E+00
              0.421187083132854E+00
              0.545052938512207E+00
              0.904491410661626E+00
             -0.771214117243254E+00
              0.102357620502854E+01
             -0.183555229346376E+01
              0.518005258133763E+00
             -0.171572526026040E+01
              0.130854481439372E+01
              0.127316501724938E+01
             -0.137042037623970E+00
             -0.773810645682897E+00
             -0.692213652312378E+00
             -0.884448582987098E+00
             -0.105749662956193E+01
              0.880867338266292E+00
              0.702787415590230E+00
              0.397052861865412E+00
              0.437659150626107E+00
              0.702696718348530E+00
             -0.662535294546524E+00
             -0.238187224856469E+00
              0.868691250976993E+00
             -0.193470856809126E+00
              0.798122203622750E+00
              0.125069712262612E+01
             -0.442794549603275E-01
             -0.122293005680324E+01
              0.715984804616774E-01
              0.359859374442930E-01
             -0.169531586898719E+00
              0.587844714803047E-01
             -0.106329380424828E+01
             -0.165578777204689E+00
              0.214904807507926E+00
              0.210357311044354E+00
              0.804424463826366E+00
             -0.671713331018636E+00
              0.876549397961710E+00
             -0.623541085499866E+00
              0.426344910340390E+00
              0.711594543242734E+00
 
 BEEF-vdW xc energy contributions
           1 :   -11.5015367324917     
           2 :    9.53515887964659     
           3 :   -6.73279200974323     
           4 :    4.12420716042471     
           5 :   -2.15240620756519     
           6 :   0.867988590109016     
           7 :  -0.144711514212824     
           8 :  -0.206536969035682     
           9 :   0.360201772451404     
          10 :  -0.435917060737935     
          11 :   0.476273860918059     
          12 :  -0.472497270799055     
          13 :   0.412342386344605     
          14 :  -0.312988322466216     
          15 :   0.205780510783484     
          16 :  -0.113128689176561     
          17 :   4.349941824551706E-002
          18 :   1.169832769416956E-003
          19 :  -2.574434917834623E-002
          20 :   3.880710122018449E-002
          21 :  -4.813908655025578E-002
          22 :   5.454342182003558E-002
          23 :  -5.433609073504364E-002
          24 :   4.357898486321510E-002
          25 :  -2.179707563487376E-002
          26 :  -7.715773206207643E-003
          27 :   3.571177839075013E-002
          28 :  -5.177492660715011E-002
          29 :   5.122335171997427E-002
          30 :  -3.805036560826558E-002
          31 :   -1.46459973876554     
          32 :  -0.906937155014704     

     Writing output data file ./pwscf.save/
 
     init_run     :     69.09s CPU     71.66s WALL (       1 calls)
     electrons    :    442.22s CPU    484.40s WALL (       1 calls)
     forces       :     28.89s CPU     31.03s WALL (       1 calls)

     Called by init_run:
     wfcinit      :      1.24s CPU      1.29s WALL (       1 calls)
     potinit      :     55.15s CPU     56.90s WALL (       1 calls)
     hinit0       :     10.91s CPU     11.04s WALL (       1 calls)

     Called by electrons:
     c_bands      :     65.44s CPU     66.14s WALL (      14 calls)
     sum_band     :     38.51s CPU     46.38s WALL (      14 calls)
     v_of_rho     :    259.67s CPU    283.17s WALL (      15 calls)
     newd         :     18.19s CPU     26.34s WALL (      15 calls)
     PAW_pot      :      1.29s CPU      1.29s WALL (      15 calls)
     mix_rho      :    107.43s CPU    111.52s WALL (      14 calls)
     vdW_kernel   :     33.46s CPU     33.47s WALL (       1 calls)

     Called by c_bands:
     init_us_2    :      1.25s CPU      1.27s WALL (      29 calls)
     regterg      :     63.46s CPU     64.15s WALL (      14 calls)

     Called by *egterg:
     rdiaghg      :      0.02s CPU      0.03s WALL (     116 calls)
     h_psi        :     57.33s CPU     57.34s WALL (     117 calls)
     s_psi        :      0.96s CPU      0.96s WALL (     117 calls)
     g_psi        :      0.22s CPU      0.22s WALL (     102 calls)

     Called by h_psi:
     h_psi:calbec :      1.09s CPU      1.09s WALL (     117 calls)
     vloc_psi     :     54.92s CPU     54.93s WALL (     117 calls)
     add_vuspsi   :      1.00s CPU      1.00s WALL (     117 calls)

     General routines
     calbec       :      1.31s CPU      1.31s WALL (     135 calls)
     fft          :    238.94s CPU    238.98s WALL (    2814 calls)
     ffts         :     45.91s CPU     45.92s WALL (     555 calls)
     fftw         :     51.44s CPU     51.44s WALL (     606 calls)
 
     Parallel routines
 
     PWSCF        :  17m 0.81s CPU  18m39.05s WALL

 
   This run was terminated on:  16:44:50  20Dec2022            

=------------------------------------------------------------------------------=
   JOB DONE.
=------------------------------------------------------------------------------=
