
     Program PWSCF v.6.7MaX starts on 21Dec2022 at 14:28: 4 

     This program is part of the open-source Quantum ESPRESSO suite
     for quantum simulation of materials; please cite
         "P. Giannozzi et al., J. Phys.:Condens. Matter 21 395502 (2009);
         "P. Giannozzi et al., J. Phys.:Condens. Matter 29 465901 (2017);
          URL http://www.quantum-espresso.org", 
     in publications or presentations arising from this work. More details at
     http://www.quantum-espresso.org/quote

     Parallel version (MPI), running on     1 processors

     MPI processes distributed on     1 nodes
     Reading input from hooh-gas-ensemble.in
Warning: card &CELL ignored
Warning: card / ignored

     Current dimensions of program PWSCF are:
     Max number of different atomic species (ntypx) = 10
     Max number of k-points (npk) =  40000
     Max angular momentum in pseudopotentials (lmaxx) =  3
     file O.pbe-nl-kjpaw_psl.1.0.0.UPF: wavefunction(s)  2S 2P renormalized
     file H.pbe-kjpaw_psl.1.0.0.UPF: wavefunction(s)  1S renormalized

     **************************************************************************
     Initializing libbeef V0.1.2 with the BEEF-vdW functional.
     Citation: Wellendorff et al., PRB 85, 235149 (2012).
     **************************************************************************


     IMPORTANT: XC functional enforced from input :
     Exchange-correlation= BEEF-VDW
                           (   1   4  43  14   2   0   0)
     Any further DFT definition will be discarded
     Please, verify this is what you really want


     gamma-point specific algorithms are used

     Subspace diagonalization in iterative solution of the eigenvalue problem:
     a serial algorithm will be used

 
     G-vector sticks info
     --------------------
     sticks:   dense  smooth     PW     G-vecs:    dense   smooth      PW
     Sum       31757   31757   7939              4099241  4099241  512523
 


     bravais-lattice index     =            0
     lattice parameter (alat)  =      42.1238  a.u.
     unit-cell volume          =   65289.5772 (a.u.)^3
     number of atoms/cell      =            4
     number of atomic types    =            2
     number of electrons       =        14.00
     number of Kohn-Sham states=           11
     kinetic-energy cutoff     =      60.0000  Ry
     charge density cutoff     =     240.0000  Ry
     scf convergence threshold =      1.0E-06
     mixing beta               =       0.7000
     number of iterations used =            8  local-TF  mixing
     Exchange-correlation= BEEF-VDW
                           (   1   4  43  14   2   0   0)

     celldm(1)=  42.123768  celldm(2)=   0.000000  celldm(3)=   0.000000
     celldm(4)=   0.000000  celldm(5)=   0.000000  celldm(6)=   0.000000

     crystal axes: (cart. coord. in units of alat)
               a(1) = (   1.000000   0.000000   0.000000 )  
               a(2) = (   0.000000   0.936802   0.000000 )  
               a(3) = (   0.000000   0.000000   0.932426 )  

     reciprocal axes: (cart. coord. in units 2 pi/alat)
               b(1) = (  1.000000  0.000000  0.000000 )  
               b(2) = (  0.000000  1.067461  0.000000 )  
               b(3) = (  0.000000  0.000000  1.072472 )  


     PseudoPot. # 1 for O  read from file:
     /users/bkreitz1/quantum-espresso/potentials/O.pbe-nl-kjpaw_psl.1.0.0.UPF
     MD5 check sum: eef08af8b58d9ec80f8fdb78829eb7cf
     Pseudo is Projector augmented-wave + core cor, Zval =  6.0
     Generated using 'atomic' code by A. Dal Corso  v.6.7MaX
     Shape of augmentation charge: PSQ
     Using radial grid of 1095 points,  4 beta functions with: 
                l(1) =   0
                l(2) =   0
                l(3) =   1
                l(4) =   1
     Q(r) pseudized with 0 coefficients 


     PseudoPot. # 2 for H  read from file:
     /users/bkreitz1/quantum-espresso/potentials/H.pbe-kjpaw_psl.1.0.0.UPF
     MD5 check sum: ae98473e6dc62675f0d0baffdab24f65
     Pseudo is Projector augmented-wave, Zval =  1.0
     Generated using 'atomic' code by A. Dal Corso  v.6.7MaX
     Shape of augmentation charge: PSQ
     Using radial grid of  929 points,  2 beta functions with: 
                l(1) =   0
                l(2) =   0
     Q(r) pseudized with 0 coefficients 


     atomic species   valence    mass     pseudopotential
        O              6.00    15.99900     O ( 1.00)
        H              1.00     1.00800     H ( 1.00)

     No symmetry found



   Cartesian axes

     site n.     atom                  positions (alat units)
         1           O   tau(   1) = (   0.4750651   0.4570777   0.4835141  )
         2           O   tau(   2) = (   0.5335589   0.4490641   0.4532809  )
         3           H   tau(   3) = (   0.5517441   0.4877524   0.4618299  )
         4           H   tau(   4) = (   0.4486095   0.4556937   0.4488956  )

     number of k points=     1  Gaussian smearing, width (Ry)=  0.0050
                       cart. coord. in units 2pi/alat
        k(    1) = (   0.0000000   0.0000000   0.0000000), wk =   2.0000000

     Dense  grid:  2049621 G-vectors     FFT dimensions: ( 216, 200, 200)

     Estimated max dynamical RAM per process >       3.04 GB

     Initial potential from superposition of free atoms

     starting charge   13.99998, renormalised to   14.00000

     negative rho (up, down):  2.035E-02 0.000E+00


     %%%%%%%%%%%%%%%%%%%%%%%%%%%%%%%%%%%%%%%%%%%%%%%%%%%%%%%%%%%%%%%%%%%%%%%%
     %                                                                      %
     % You are using vdW-DF, which was implemented by the Thonhauser group. %
     % Please cite the following two papers that made this development      %
     % possible and the two reviews that describe the various versions:     %
     %                                                                      %
     %   T. Thonhauser et al., PRL 115, 136402 (2015).                      %
     %   T. Thonhauser et al., PRB 76, 125112 (2007).                       %
     %   K. Berland et al., Rep. Prog. Phys. 78, 066501 (2015).             %
     %   D.C. Langreth et al., J. Phys.: Condens. Matter 21, 084203 (2009). %
     %                                                                      %
     %                                                                      %
     % If you are calculating the stress with vdW-DF, please also cite:     %
     %                                                                      %
     %   R. Sabatini et al., J. Phys.: Condens. Matter 24, 424209 (2012).   %
     %                                                                      %
     %%%%%%%%%%%%%%%%%%%%%%%%%%%%%%%%%%%%%%%%%%%%%%%%%%%%%%%%%%%%%%%%%%%%%%%%


     Starting wfcs are   10 randomized atomic wfcs +    1 random wfcs
     Checking if some PAW data can be deallocated... 

     total cpu time spent up to now is       63.4 secs

     Self-consistent Calculation

     iteration #  1     ecut=    60.00 Ry     beta= 0.70
     Davidson diagonalization with overlap
     ethr =  1.00E-02,  avg # of iterations =  5.0

     negative rho (up, down):  1.559E-02 0.000E+00

     total cpu time spent up to now is       96.0 secs

     total energy              =     -87.21228540 Ry
     estimated scf accuracy    <       0.41879516 Ry

     iteration #  2     ecut=    60.00 Ry     beta= 0.70
     Davidson diagonalization with overlap
     ethr =  2.99E-03,  avg # of iterations =  2.0

     negative rho (up, down):  1.331E-02 0.000E+00

     total cpu time spent up to now is      126.6 secs

     total energy              =     -87.22405280 Ry
     estimated scf accuracy    <       0.06270308 Ry

     iteration #  3     ecut=    60.00 Ry     beta= 0.70
     Davidson diagonalization with overlap
     ethr =  4.48E-04,  avg # of iterations =  4.0

     negative rho (up, down):  1.763E-02 0.000E+00

     total cpu time spent up to now is      158.6 secs

     total energy              =     -87.22894007 Ry
     estimated scf accuracy    <       0.01202133 Ry

     iteration #  4     ecut=    60.00 Ry     beta= 0.70
     Davidson diagonalization with overlap
     ethr =  8.59E-05,  avg # of iterations =  8.0

     negative rho (up, down):  2.453E-02 0.000E+00

     total cpu time spent up to now is      191.5 secs

     total energy              =     -87.22802063 Ry
     estimated scf accuracy    <       0.00431066 Ry

     iteration #  5     ecut=    60.00 Ry     beta= 0.70
     Davidson diagonalization with overlap
     ethr =  3.08E-05,  avg # of iterations = 11.0

     negative rho (up, down):  5.221E-02 0.000E+00

     total cpu time spent up to now is      225.6 secs

     total energy              =     -87.22830081 Ry
     estimated scf accuracy    <       0.00165622 Ry

     iteration #  6     ecut=    60.00 Ry     beta= 0.70
     Davidson diagonalization with overlap
     ethr =  1.18E-05,  avg # of iterations =  7.0

     negative rho (up, down):  6.000E-02 0.000E+00

     total cpu time spent up to now is      258.3 secs

     total energy              =     -87.22843090 Ry
     estimated scf accuracy    <       0.00057787 Ry

     iteration #  7     ecut=    60.00 Ry     beta= 0.70
     Davidson diagonalization with overlap
     ethr =  4.13E-06,  avg # of iterations =  9.0

     negative rho (up, down):  5.346E-02 0.000E+00

     total cpu time spent up to now is      291.7 secs

     total energy              =     -87.22828856 Ry
     estimated scf accuracy    <       0.00020816 Ry

     iteration #  8     ecut=    60.00 Ry     beta= 0.70
     Davidson diagonalization with overlap
     ethr =  1.49E-06,  avg # of iterations =  7.0

     negative rho (up, down):  4.037E-02 0.000E+00

     total cpu time spent up to now is      324.4 secs

     total energy              =     -87.22807743 Ry
     estimated scf accuracy    <       0.00009780 Ry

     iteration #  9     ecut=    60.00 Ry     beta= 0.70
     Davidson diagonalization with overlap
     ethr =  6.99E-07,  avg # of iterations = 11.0

     negative rho (up, down):  3.132E-02 0.000E+00

     total cpu time spent up to now is      357.9 secs

     total energy              =     -87.22802427 Ry
     estimated scf accuracy    <       0.00003307 Ry

     iteration # 10     ecut=    60.00 Ry     beta= 0.70
     Davidson diagonalization with overlap
     ethr =  2.36E-07,  avg # of iterations =  6.0

     negative rho (up, down):  2.825E-02 0.000E+00

     total cpu time spent up to now is      390.0 secs

     total energy              =     -87.22802275 Ry
     estimated scf accuracy    <       0.00001165 Ry

     iteration # 11     ecut=    60.00 Ry     beta= 0.70
     Davidson diagonalization with overlap
     ethr =  8.32E-08,  avg # of iterations =  7.0

     negative rho (up, down):  2.620E-02 0.000E+00

     total cpu time spent up to now is      421.7 secs

     total energy              =     -87.22802929 Ry
     estimated scf accuracy    <       0.00000553 Ry

     iteration # 12     ecut=    60.00 Ry     beta= 0.70
     Davidson diagonalization with overlap
     ethr =  3.95E-08,  avg # of iterations =  6.0

     negative rho (up, down):  2.540E-02 0.000E+00

     total cpu time spent up to now is      453.2 secs

     total energy              =     -87.22802948 Ry
     estimated scf accuracy    <       0.00000207 Ry

     iteration # 13     ecut=    60.00 Ry     beta= 0.70
     Davidson diagonalization with overlap
     ethr =  1.48E-08,  avg # of iterations =  5.0

     negative rho (up, down):  2.441E-02 0.000E+00

     total cpu time spent up to now is      476.0 secs

     End of self-consistent calculation

          k = 0.0000 0.0000 0.0000 (256262 PWs)   bands (ev):

   -28.3861 -23.1251 -13.5782 -12.3367 -10.5536  -7.9925  -6.8934  -2.1175
    -1.3033  -0.2271  -0.2079

     the Fermi energy is    -3.6281 ev

!    total energy              =     -87.22803239 Ry

     total all-electron energy =      -304.921814 Ry
     estimated scf accuracy    <       0.00000085 Ry
     smearing contrib. (-TS)   =      -0.00000000 Ry
     internal energy E=F+TS    =     -87.22803239 Ry

     The total energy is F=E-TS. E is the sum of the following terms:
     one-electron contribution =    -170.90106444 Ry
     hartree contribution      =      88.59830354 Ry
     xc contribution           =     -16.82821967 Ry
     ewald contribution        =      32.18844059 Ry
     one-center paw contrib.   =     -20.28549240 Ry

     convergence has been achieved in  13 iterations

     negative rho (up, down):  2.441E-02 0.000E+00

     Forces acting on atoms (cartesian axes, Ry/au):

     atom    1 type  1   force =    -0.00037128    0.00010517   -0.00031607
     atom    2 type  1   force =     0.00067356    0.00011118   -0.00007293
     atom    3 type  2   force =    -0.00036780   -0.00031036   -0.00000897
     atom    4 type  2   force =     0.00006552    0.00009401    0.00039796

     Total force =     0.001060     Total SCF correction =     0.000097

     negative rho (up, down):  2.441E-02 0.000E+00

     negative rho (up, down):  2.441E-02 0.000E+00

     negative rho (up, down):  2.441E-02 0.000E+00

     negative rho (up, down):  2.441E-02 0.000E+00

     negative rho (up, down):  2.441E-02 0.000E+00

     negative rho (up, down):  2.441E-02 0.000E+00

     negative rho (up, down):  2.441E-02 0.000E+00

     negative rho (up, down):  2.441E-02 0.000E+00

     negative rho (up, down):  2.441E-02 0.000E+00

     negative rho (up, down):  2.441E-02 0.000E+00

     negative rho (up, down):  2.441E-02 0.000E+00

     negative rho (up, down):  2.441E-02 0.000E+00

     negative rho (up, down):  2.441E-02 0.000E+00

     negative rho (up, down):  2.441E-02 0.000E+00

     negative rho (up, down):  2.441E-02 0.000E+00

     negative rho (up, down):  2.441E-02 0.000E+00

     negative rho (up, down):  2.441E-02 0.000E+00

     negative rho (up, down):  2.441E-02 0.000E+00

     negative rho (up, down):  2.441E-02 0.000E+00

     negative rho (up, down):  2.441E-02 0.000E+00

     negative rho (up, down):  2.441E-02 0.000E+00

     negative rho (up, down):  2.441E-02 0.000E+00

     negative rho (up, down):  2.441E-02 0.000E+00

     negative rho (up, down):  2.441E-02 0.000E+00

     negative rho (up, down):  2.441E-02 0.000E+00

     negative rho (up, down):  2.441E-02 0.000E+00

     negative rho (up, down):  2.441E-02 0.000E+00

     negative rho (up, down):  2.441E-02 0.000E+00

     negative rho (up, down):  2.441E-02 0.000E+00

     negative rho (up, down):  2.441E-02 0.000E+00

     negative rho (up, down):  2.441E-02 0.000E+00

     negative rho (up, down):  2.441E-02 0.000E+00

     negative rho (up, down):  2.441E-02 0.000E+00

     negative rho (up, down):  2.441E-02 0.000E+00
 BEEFens 2000 ensemble energies
             -0.124056126335893E+01
             -0.464070502443126E-01
             -0.270578296822643E+00
              0.858410033828674E+00
             -0.405624811388401E+00
             -0.322397692123431E+00
             -0.906697145075725E+00
             -0.189310716961023E+01
             -0.733220926130540E+00
             -0.780486245058682E+00
             -0.688052450726590E+00
              0.850060426589605E-01
              0.586454622308086E-01
             -0.531095439899101E-01
              0.818832534544471E-01
              0.909551835675130E+00
             -0.419954009456304E+00
             -0.255900314192362E+00
              0.432206912536483E+00
             -0.216499178745694E+01
              0.109871861002041E+01
             -0.382203119686585E+00
             -0.125976814073509E+00
             -0.185806385283656E+00
              0.140947457724341E-01
             -0.149043044659478E+00
              0.173550664917300E+01
             -0.372030257070059E+00
             -0.188952912556339E+00
             -0.108101632336157E+01
              0.141074135864711E+01
             -0.149173435657692E+00
             -0.821730025544936E+00
              0.395879628137241E+00
             -0.551761187095696E-01
              0.510318543126699E+00
              0.162126092553363E-01
              0.284203348238332E-01
              0.654309833456121E+00
             -0.200327648813272E+01
              0.106365077076227E+01
              0.219876019215417E+00
             -0.189108948233321E+00
             -0.617833140056205E+00
              0.224359703141053E+00
             -0.310239103978494E+00
              0.972715400765420E+00
              0.703293505806320E+00
             -0.412346471470039E+00
             -0.624507954632938E+00
             -0.570878835837073E+00
             -0.705548391557976E+00
              0.364039496551374E+00
             -0.104497535026111E+01
              0.301899833704905E+00
              0.118570869762352E+01
              0.142276855619725E+01
              0.627417219050600E+00
              0.361749889750985E+00
              0.594879681075058E+00
              0.175386356839328E+01
              0.385729411565558E+00
             -0.108817685192741E+01
             -0.210670950998388E+00
             -0.562340751088227E+00
              0.123617095811773E+01
             -0.147468493728962E+01
             -0.114301640025007E+01
             -0.597574939556539E+00
             -0.295073815662306E+00
             -0.827640149000013E+00
              0.535118444326378E+00
              0.257659653405977E+00
              0.303707796254068E+00
             -0.725942113333198E+00
             -0.695036847887748E+00
             -0.111789099032689E+01
              0.662375699833539E+00
             -0.645423445580101E+00
              0.564987210126019E+00
             -0.121304976131017E+00
             -0.578069736450550E+00
             -0.105328486548785E+01
             -0.305016744134977E+00
             -0.330074219305843E+00
             -0.334605614400614E+00
              0.748715277040697E+00
              0.145158596568214E+01
             -0.878625503234362E+00
             -0.158441419276578E+01
             -0.364042021732294E+00
              0.216468910052779E+01
             -0.105849786677020E+01
              0.601591122122083E+00
             -0.219041047109529E+00
             -0.120245622313360E+01
              0.554447436406845E+00
              0.638944997329441E+00
             -0.266206333755830E+00
              0.563481080342747E+00
             -0.511402123642927E+00
             -0.114419910521380E+01
              0.191141592328910E+01
              0.901818090277008E+00
              0.456300277771474E+00
              0.255198711823770E+00
              0.409769324164742E+00
              0.160237260067616E+01
             -0.515772277728026E+00
              0.426050541903749E-01
             -0.273479450860251E+01
              0.390987691720405E+00
             -0.130930927539280E+01
              0.235597443114977E+00
              0.416660428265987E+00
             -0.700939835753035E+00
             -0.995476725225188E+00
              0.777557763097132E-01
             -0.580003355563633E+00
              0.842675199656713E+00
             -0.876383742621892E+00
             -0.135953002679386E+00
             -0.752471075163116E+00
             -0.756643497450851E-01
              0.517899770039771E-01
              0.378616656281646E+00
             -0.124213501660417E-01
             -0.140361021410587E+00
              0.125633926328381E+01
              0.178591122847214E+01
              0.947430374504220E+00
              0.134458849215695E+01
             -0.274644227709656E+00
              0.184386349397453E+00
              0.102473978511522E+01
              0.374176274565996E-01
             -0.147483285393357E+01
             -0.812847254061183E+00
             -0.933130700083080E+00
             -0.576381301665568E+00
              0.479513325189350E+00
             -0.237220797909010E+01
             -0.228014832312623E+00
              0.893310197364622E+00
             -0.794983179576669E+00
             -0.581764368541638E+00
              0.107057396449015E+01
              0.967478156591237E+00
             -0.543693005958259E+00
              0.559101124500177E+00
             -0.466814491852886E+00
              0.743754151478250E+00
              0.173103744069798E+00
              0.247321158992664E+00
             -0.161260648972687E+01
             -0.953781636388094E+00
             -0.166532577266482E+00
             -0.291498767786456E-01
             -0.824238694129937E+00
              0.213768332158072E+01
             -0.252517240295276E+00
             -0.523473839406043E+00
              0.798988281027111E+00
             -0.898485599846403E+00
             -0.706593406203378E+00
              0.616514706386306E+00
              0.216103469025995E+00
              0.186128775517211E+00
              0.270103874862147E+00
             -0.207409029411343E+00
              0.218441267326924E+00
              0.116299375468392E+01
             -0.563487961687889E+00
              0.425895539699576E+00
              0.172703617273147E+01
              0.595655886616047E+00
             -0.951359893726647E-01
             -0.372371278085507E+00
              0.301743989185731E+01
             -0.454001451873248E+00
              0.739830107218461E+00
              0.571088615998312E+00
              0.593523962723991E+00
              0.183818809919197E+01
              0.908337552725042E+00
             -0.124785543653248E+00
              0.462105372725910E+00
              0.991077273833076E+00
              0.767788418955296E+00
             -0.118446805766340E+01
              0.182996244137522E+01
             -0.167109846004196E+01
             -0.250927754396047E+00
              0.111712519387278E+01
              0.260848577902386E+00
              0.100109235132377E+00
              0.580951615573226E+00
              0.307729207392945E+00
              0.645915893171226E+00
             -0.123026975923911E+01
              0.811922738743416E-01
             -0.450197016726488E+00
             -0.147897939812842E+00
             -0.386489940681436E-01
             -0.220173467426155E+00
             -0.120118226003743E+00
              0.162224153472479E+01
             -0.104138057905954E+00
             -0.578175140661039E+00
             -0.317061472769860E-01
              0.267623098189624E+00
             -0.124449983595273E+01
             -0.100556052474747E+01
             -0.667929875826692E+00
             -0.121369211087542E+01
             -0.368259892902159E+00
             -0.787637407720018E+00
              0.377586262214662E+00
              0.182167688421582E-01
             -0.246943692071921E+00
             -0.164850642783668E+00
              0.104597388615390E+00
             -0.333774338384624E+00
              0.124161054430347E+01
             -0.167551634167222E+01
             -0.254707470177269E+00
             -0.292871417292863E+00
              0.312085460128611E+00
              0.360481895692216E+00
             -0.992157703173532E+00
             -0.260713388309899E+00
              0.865569042873055E+00
             -0.404341373638377E+00
              0.238324542255407E+00
              0.685755498238177E+00
             -0.504341410298359E-02
              0.226281080129317E+01
             -0.273342441871808E+00
             -0.693767460992552E+00
              0.308094772908039E-01
             -0.526246417208130E+00
              0.105685735928203E+01
             -0.891594969548154E+00
              0.247191036830058E+00
              0.103080862114525E+01
             -0.269610507135041E+00
              0.228796612544776E+01
              0.248806588740076E+01
             -0.137138945624086E+01
              0.110250548905121E+01
              0.420777665357807E+00
             -0.107907263969232E+01
              0.378808945787494E+00
              0.776216435623287E+00
              0.881093654186373E+00
              0.107258692599748E+00
              0.299035967113612E+00
              0.141887608456321E+01
             -0.442964381977994E+00
              0.173877485974835E+00
              0.136017261469194E+01
             -0.723696253701917E+00
             -0.422796587783372E+00
              0.111748185351962E+01
              0.591499618198059E+00
              0.152852964785018E+01
              0.624897413333059E+00
              0.229321671486980E+00
              0.494749839737089E+00
              0.815939886295860E+00
             -0.949556522522585E+00
              0.113519395368572E+00
              0.452938558828612E+00
              0.195355719824573E+00
              0.451749309164281E+00
             -0.118172141385804E+01
              0.647591351492579E+00
             -0.854556348487979E+00
             -0.583780491609967E+00
              0.328543772765851E+00
             -0.198457733184060E+00
              0.112815603648529E+01
             -0.347989007546599E+00
              0.557183625975023E+00
              0.584640853608583E+00
              0.151399358814787E+01
              0.102397713272304E+01
              0.991546405588441E+00
             -0.135827964603243E+00
             -0.189919147597248E+00
             -0.570649351214497E+00
              0.156288305131315E+01
              0.161397694985116E+01
              0.752407655145049E+00
             -0.530487241042947E+00
              0.969197215709759E+00
             -0.467280664683214E-01
              0.381765251434408E+00
              0.133004794266925E+01
             -0.492107279265945E-01
             -0.203327196339536E+00
             -0.449402787492616E+00
             -0.112668946525719E+01
              0.187056012506150E+01
              0.935675463654576E+00
             -0.122855977084301E+01
             -0.405442495982624E+00
              0.516194912581864E+00
             -0.229497196178998E+00
              0.127231185855586E+01
              0.313902848561774E+00
              0.158181760299624E+01
              0.541854212694280E+00
             -0.508553534244232E+00
              0.396928843008261E+00
             -0.137393627563196E+00
             -0.538527491540636E+00
              0.346333250112117E+00
              0.351986842113256E+00
              0.170500197548571E+01
              0.149230135338465E+01
              0.108938177639919E+01
              0.134744450479431E+01
              0.114200925609178E+00
             -0.500563274886302E+00
              0.255486738724994E+00
             -0.670665896590629E+00
             -0.106427457286100E+01
             -0.113546445127589E+01
             -0.615275310122746E+00
             -0.211477796506905E+01
             -0.687895049353452E+00
             -0.167315200613039E+01
              0.374685122637154E+00
             -0.885371534111488E+00
              0.952419636379729E+00
             -0.187592409390536E+01
             -0.572666601216619E+00
              0.831099843820411E+00
              0.433253985969491E+00
             -0.172969833290633E+01
              0.108219574285823E+01
             -0.543079339972012E+00
              0.107901756008271E+01
             -0.594003764849123E+00
             -0.153350886756528E+01
              0.362753325784537E+00
             -0.128771178701444E+01
             -0.127529674512429E+00
              0.326029976845016E-02
              0.845768279086716E+00
              0.244202281919515E+01
             -0.861978138811200E+00
             -0.747058225942983E+00
             -0.110800475340279E+00
             -0.180389877777270E+00
             -0.156243889593062E+01
             -0.112515396855188E+01
              0.999670165165973E+00
             -0.393028591253621E+00
              0.389425120160336E+00
             -0.972100609287294E+00
             -0.290245453314529E+00
             -0.821888379668010E+00
              0.944076319557795E+00
              0.307386919192961E+00
             -0.467160710052413E+00
             -0.309100365022661E+00
              0.236221478891692E+00
             -0.167725355010131E+00
              0.802285385889067E+00
             -0.528446516359915E+00
              0.153642792494757E+00
              0.626631680367566E+00
              0.287691247644441E+00
             -0.417272731058323E+00
              0.303729297123960E+01
              0.110624649068231E+01
              0.182184541128797E+00
              0.140336858977966E+00
             -0.116812518375736E+01
              0.630067909678736E+00
             -0.150415117321488E+01
             -0.649656132003830E+00
             -0.115335427002470E+01
             -0.336788245867877E+00
              0.112121309745019E+01
             -0.112411604595518E+01
              0.469316308790955E+00
             -0.540275359679541E-01
              0.465748347228478E-01
             -0.634569853093275E+00
             -0.811735933740589E+00
             -0.666609684276320E-01
             -0.725399019616283E+00
             -0.474530338147212E+00
             -0.761948652430415E+00
             -0.119377352630023E+00
             -0.627718915792295E+00
             -0.964594125077927E+00
              0.458511345347098E+00
             -0.286293055792723E+00
              0.434158381077264E+00
              0.185513392899561E+00
             -0.145322535488835E+01
             -0.102035637269629E+01
             -0.914261336999830E+00
              0.672324726185771E+00
             -0.988735972593178E-01
             -0.124320266703834E+01
              0.107812254701865E+01
             -0.830468952990982E+00
              0.110002121292307E+01
             -0.582502951782491E+00
             -0.969894709341427E+00
              0.532529746565924E+00
             -0.142349153361812E+01
             -0.642985625261769E+00
              0.117702904295150E+01
              0.383246444825584E+00
             -0.779970114146989E+00
              0.106456599569006E+01
             -0.310987220024195E+00
             -0.700853291615559E+00
             -0.601477399198019E+00
             -0.101319946264482E+01
              0.458896776645423E+00
             -0.169075274750629E+01
             -0.153023817800151E+01
             -0.136618953239452E+00
             -0.558490936123944E+00
             -0.115619201342051E+01
              0.148458841151072E+01
              0.266628609155555E+01
             -0.477740299096245E+00
             -0.489018761764921E-01
             -0.120623390584253E+01
              0.128062376074591E+01
              0.419948877873158E+00
             -0.358479396348935E+00
             -0.721075149650312E+00
              0.294231025983924E+00
             -0.119491597672161E+01
             -0.217511001466813E+00
             -0.172790068397891E+01
              0.651188815555811E+00
              0.260317258509168E+00
             -0.100780316293642E+00
             -0.174641049285036E+00
             -0.761058751886047E+00
             -0.222656667818578E+00
              0.262260177772790E+01
             -0.311243677523404E+00
             -0.902987614542215E+00
             -0.132789398050930E+01
              0.255323140661590E+00
             -0.712254627920573E+00
              0.159585942274603E+00
              0.640642450186260E+00
              0.797343136003379E-01
              0.680423376742734E+00
              0.326283344337865E+00
              0.114878668201358E+01
              0.531410389694213E+00
             -0.682883647802656E+00
              0.979900330683739E+00
              0.684052992887935E+00
              0.253234028035037E+00
              0.734177192147980E+00
             -0.554792093733782E+00
              0.140390332342819E+01
              0.465555445476302E+00
             -0.666117902872308E+00
             -0.109022566756378E+00
             -0.311029275915292E+00
              0.335644887816253E+00
             -0.548200771759035E+00
             -0.177752019856150E+00
             -0.247634421857200E+00
              0.159266330692475E+01
              0.112872178197964E+01
             -0.133170107740634E+01
             -0.122200298514182E+00
             -0.101970412486498E+01
             -0.290924251801478E+00
             -0.413324856613582E+00
              0.204028556910986E+00
             -0.918158340803428E-01
             -0.529791625515671E+00
              0.288611404559662E+00
             -0.176382192711835E+00
             -0.174780931012450E+00
              0.170831936813921E+01
              0.325532676756487E+00
             -0.158107275253380E+01
             -0.774595668252077E+00
              0.182178623389775E+01
              0.453695340063897E+00
             -0.159907132332076E+00
              0.214280072561572E+01
             -0.385637417851457E+00
             -0.159070258095166E+00
             -0.202992487913061E+00
              0.300775126741466E+00
              0.597857668055523E+00
              0.549200591972341E-01
              0.558634470771823E+00
             -0.247220319747566E+00
             -0.713931344714511E+00
             -0.743257488013325E+00
             -0.960270586646663E+00
              0.816282239022824E+00
              0.298695439896033E+00
              0.734273387938994E+00
              0.308001479591907E+00
              0.174382622115159E+01
              0.381907810139789E+00
             -0.148764635837819E+01
             -0.641053774371834E+00
              0.110329092994049E+00
             -0.553427279387755E+00
              0.122696367150928E+01
             -0.317433283557868E+00
              0.351823840390049E+00
              0.105953059518077E+01
             -0.156715590941161E+01
              0.290020266809789E+01
              0.372048831585082E+00
              0.469390599868168E+00
              0.725482890287402E+00
              0.970509844515366E-01
             -0.678814988370959E-01
              0.660234409361632E+00
             -0.658120158887467E+00
              0.165168952376645E+01
              0.143856316357305E+01
             -0.744761028495572E+00
              0.340486936849832E+00
              0.141238562865818E+01
             -0.443422125604611E+00
              0.367256194038000E+00
              0.703233740333438E+00
              0.849809954901240E+00
             -0.146154412902111E+01
             -0.143352042661700E+00
             -0.580483145536530E+00
             -0.129453127337042E+00
             -0.109236030046544E+00
              0.681339582299465E-01
             -0.313152914639794E+00
             -0.550582383804386E+00
              0.263106373414745E+00
              0.153308518853756E+00
              0.104249988433470E+01
             -0.872049761041254E+00
              0.819826019956643E+00
              0.964051935502764E+00
             -0.256126508297578E+00
              0.152297621013408E+01
             -0.131307260901455E+01
             -0.202226280544714E+01
             -0.116100882613125E+00
             -0.131101516397379E+00
              0.272015116214721E-01
              0.148546718235208E+01
             -0.609278502970734E-01
              0.809972214853027E+00
              0.111006555497870E+01
              0.769635096137492E+00
             -0.861481973230305E-01
              0.122143323935696E+01
             -0.326220327638592E+00
             -0.735137546850392E+00
             -0.779607398283693E+00
              0.163181790116833E+00
              0.756424030701462E+00
             -0.804891211058596E-01
              0.713276735564317E+00
              0.786492612222744E-03
              0.113180809524960E+01
              0.376033418485975E+00
              0.142898776071193E+00
             -0.810817067172032E-02
              0.598299700300150E+00
              0.804711114848360E+00
              0.333307271323261E+00
             -0.656860866399249E-01
             -0.104368974480963E+01
              0.578390536772877E+00
              0.403011101688655E+00
              0.696518562599780E+00
              0.612265310770166E+00
              0.699253207193595E+00
             -0.175875699676231E+00
              0.607871832494334E+00
             -0.548954317278525E+00
             -0.403078773333849E-01
             -0.105447931641498E+01
             -0.696259728687529E+00
              0.849309672758735E+00
             -0.173844984056181E+01
              0.510290826340828E+00
              0.278121614169594E+00
              0.166031119624194E+01
             -0.359597473215589E+00
              0.610053257529075E+00
             -0.236311915653181E+00
             -0.956849993122134E+00
             -0.136058948737887E+01
             -0.241981752395823E+00
             -0.176834586250144E+01
              0.217637041030342E+00
             -0.421380873479589E+00
              0.622270913187570E+00
              0.416010923193525E+00
             -0.523914578609030E+00
             -0.543925310127266E+00
              0.844207693960367E+00
             -0.107058105805238E+01
             -0.240690072917179E+00
             -0.325711301860910E+00
              0.480478121414474E+00
              0.114082613146023E-01
              0.855992566110015E-01
             -0.327527647987981E+00
              0.105488409501069E+01
             -0.105581007612837E+01
              0.168933952195362E+00
              0.115163289498489E+01
             -0.679559942340182E+00
              0.504287072909371E-01
             -0.157481749142487E-01
             -0.133027144273246E+01
             -0.840234440809749E+00
             -0.757102045488942E-01
              0.577058444761380E+00
              0.640298315271641E+00
              0.883970792511271E-01
             -0.201670991054264E+00
              0.374727304327566E+00
             -0.835379220086989E+00
             -0.596895868797906E-01
             -0.102215288311049E+01
             -0.496419263034508E+00
              0.965167366664739E+00
             -0.595632682983319E+00
              0.132284166135129E+01
             -0.409820469352821E+00
              0.697980092872607E+00
              0.495692964437358E+00
             -0.116793570578597E+01
             -0.547433340003968E+00
              0.164313965163957E+00
             -0.757026553423291E+00
             -0.812272387245101E+00
             -0.169880420205617E+01
             -0.111102867207916E+01
             -0.980359101358721E+00
             -0.881828894239741E+00
              0.247385735162640E-01
              0.432905960034240E+00
              0.148849775284127E+00
              0.482801153540657E+00
             -0.114664010627447E+01
              0.233379559266426E+00
              0.470851178270591E+00
             -0.135123562403142E+01
             -0.114721578124413E+01
             -0.731265027660886E+00
             -0.577131912424242E+00
              0.324517678463296E+00
             -0.414965285544735E-01
             -0.879058618760417E+00
              0.614627830815724E+00
             -0.412100705192069E+00
              0.102904531828540E+01
             -0.170697854719956E+01
              0.118432636881559E+01
             -0.147014316541837E+00
             -0.842158486233694E+00
             -0.567132245572906E+00
             -0.141051429243424E-01
              0.936731742645654E+00
             -0.137563629738672E+01
             -0.265118872753247E+00
             -0.319270595966147E+00
              0.846281474448995E+00
              0.155195231351482E+01
             -0.191995280394616E+01
              0.181320501162797E+01
              0.818846805283845E+00
             -0.149617004167410E+01
             -0.653973295032465E+00
              0.151671794257512E+01
              0.112386354499888E+01
             -0.376080178301631E+00
             -0.142447191920819E+00
              0.326840318517413E+00
              0.147613437765257E+01
             -0.113605483796013E+01
              0.292697812764867E+00
             -0.131545512747851E+00
              0.574070398157451E+00
             -0.138311141736313E+01
             -0.782618593452240E-01
             -0.578003095734868E+00
              0.942224167534317E+00
              0.773074836025021E+00
             -0.170770578344794E+01
             -0.939310056569725E+00
             -0.425345146573475E+00
             -0.794335214385174E+00
             -0.269226056274203E+00
             -0.418201803918713E+00
              0.885255582456215E+00
              0.876489685838054E+00
             -0.907756791213288E-01
             -0.829514868239092E+00
             -0.163908465386480E+01
              0.952082553856526E+00
             -0.935749768300822E+00
             -0.679666240363695E+00
              0.147043659022956E+00
             -0.684976868899455E+00
             -0.801496971279706E+00
             -0.579252241697571E+00
             -0.933250189134414E+00
             -0.489131984129661E+00
             -0.983033175711522E+00
              0.111710727548060E+01
              0.121378378653072E+01
             -0.167487450631901E+00
             -0.436274833144703E+00
              0.431221933612029E-01
              0.817431408561792E+00
             -0.170484073760529E+01
             -0.470623549825605E+00
              0.100960317083327E+01
              0.131431092269315E+01
             -0.250026839323282E+00
              0.238936717951736E+00
              0.100358547591456E+01
              0.291978064596085E+00
             -0.385225705047612E-01
             -0.748142386933555E+00
              0.304606742809650E+00
             -0.658933176072082E+00
             -0.246206005262869E+00
             -0.394346087037904E+00
             -0.304566131031322E+00
              0.417610746572883E+00
              0.155408853244103E+01
             -0.116426619599942E+00
              0.472841721498152E-01
             -0.178529194855250E+01
             -0.353661884514738E+00
             -0.729506741092030E+00
              0.563367562611212E-01
             -0.853327820852530E+00
              0.168177123187292E+01
              0.170744424080682E+01
              0.371039756915429E+00
             -0.392623954601425E+00
              0.315018723419374E+00
              0.459327798948005E+00
             -0.888814895143040E+00
             -0.134953605142069E+00
              0.311387569690147E+00
              0.263834585869831E+00
              0.100492174333855E+01
              0.820819773940608E+00
             -0.433957659620547E+00
              0.496923063217722E+00
             -0.188382662937833E+01
             -0.854498105076682E-01
              0.175459584692767E+01
              0.343811218105583E+00
             -0.104401254712219E-01
              0.532984203694127E+00
             -0.448949753480694E+00
              0.177754174969984E+01
             -0.339628233456174E+00
              0.156463723924569E+01
              0.728709205242118E+00
             -0.846877430631041E+00
              0.637069160342500E+00
             -0.555734207080363E+00
             -0.130556710699839E+01
             -0.156320905891906E+00
             -0.107948709397643E+01
             -0.103719392990299E+01
             -0.381270057069512E-01
              0.672830933908966E+00
             -0.208063039182343E+00
             -0.652645015444037E+00
              0.134414098512585E+00
             -0.131590871367643E+01
             -0.935435838467243E-01
             -0.169362549277990E+01
              0.110956579078452E+01
             -0.996384046334313E-01
             -0.947794479146017E+00
             -0.391584418583432E+00
              0.331760886366165E+00
             -0.683681838261428E+00
             -0.880419216303371E+00
              0.170823934617498E+01
             -0.524059999206840E+00
             -0.825885604432280E+00
              0.577020554249224E+00
             -0.343240985091915E+00
              0.104135849541736E+01
              0.132967050672796E-01
              0.965493187082203E-01
              0.206635637417975E+01
             -0.250671332020799E+00
             -0.738598110769229E+00
             -0.870722976247876E+00
             -0.106120820269637E+01
             -0.711781281828973E+00
              0.587384149793417E+00
              0.523728488931663E+00
              0.551128202389415E+00
              0.147082366448101E+01
              0.689237752848584E-01
              0.401192466461209E+00
             -0.119509653036763E+01
              0.187684614204091E-01
             -0.389094699832132E+00
             -0.521520712768121E+00
             -0.405450047953408E-01
              0.653422209994976E+00
              0.738599192593380E+00
             -0.331009288426314E-01
              0.196579261451980E+00
              0.569746907301630E+00
              0.739426913746375E+00
             -0.430073234313266E+00
             -0.191592485541280E+00
              0.306206976593040E-01
             -0.516220445908386E+00
             -0.130887288809123E+00
             -0.672146824174290E+00
              0.147649986665650E+01
              0.118579318852988E+01
             -0.297439679821546E+00
              0.268407487119804E+00
             -0.868622160710320E-01
             -0.529410748354120E+00
              0.703943109138514E+00
             -0.182574341692867E+00
              0.684291019536968E+00
             -0.964157349899270E+00
              0.342897783410473E+00
             -0.151771317083456E+00
             -0.107198904327096E+01
             -0.471476470591746E+00
              0.463069299217526E+00
             -0.188591802111552E+01
              0.742483924827440E+00
              0.933402603462194E+00
             -0.172438052312339E+00
             -0.126549442200512E+00
             -0.524781864719159E-01
              0.522436968506229E+00
             -0.643257409052381E+00
              0.616226795310680E+00
              0.628020543371253E+00
             -0.189153639605406E+01
             -0.692884527546755E+00
              0.459289443614223E+00
             -0.256562211425215E+00
              0.871545204644920E+00
             -0.118897199765376E+01
             -0.107035534593845E+00
             -0.784519878151433E+00
             -0.249383646228895E+01
              0.154367322993808E+01
             -0.119812482096305E+01
             -0.127417822215096E+01
              0.125580850716807E+00
              0.251644693034311E+01
              0.114335935646849E+00
             -0.566552603321243E+00
             -0.541621279221083E-02
             -0.101612195402516E+00
             -0.174966694974832E+01
             -0.112030545698366E+01
              0.165697442606194E+01
             -0.187088425538447E+00
             -0.735511080414317E+00
              0.100857515041064E+01
             -0.648084635118340E+00
              0.685246739064889E+00
              0.962751476130701E+00
             -0.111000825211872E+01
             -0.547685779937455E+00
             -0.630150127430524E+00
             -0.288530350800808E+00
             -0.409407869179040E+00
             -0.289829424693975E+00
              0.364935883654843E+00
             -0.671084998850637E+00
              0.558887616815628E+00
              0.111893864758436E+01
             -0.215423245881262E+00
             -0.360117300161967E+00
              0.265736559708431E+00
              0.107029704723413E+01
              0.104920664935313E+01
              0.107271484798009E+00
             -0.154459712251801E+00
             -0.164523300523018E+00
             -0.104261962547726E+01
              0.776721145103620E+00
             -0.514755925667483E+00
              0.402609875718676E+00
             -0.270891125286850E+00
              0.546904115156295E+00
              0.332154722951467E+00
             -0.160486696775165E+01
             -0.523332723731858E+00
             -0.152812664479466E+01
             -0.753772412111786E+00
              0.122737394906171E+00
             -0.365918952582469E+00
              0.655632914027394E+00
             -0.540760498118591E+00
              0.362238759727675E-01
              0.147522089027671E+00
              0.145485129900645E+01
              0.740947195133812E+00
             -0.583735092367559E+00
              0.147452761456890E-03
              0.280797611978586E+00
              0.722657206040773E+00
              0.279300357143164E-02
              0.107435922149525E+01
              0.577689849366223E+00
              0.175870522598829E+01
              0.996205830815260E-01
              0.126768326424164E+01
             -0.521135122407090E+00
             -0.786930502960271E+00
              0.105548934531429E+00
              0.179312214203939E+00
              0.505572116410384E+00
             -0.271622041501692E+00
             -0.251134279800636E+00
              0.430934714751902E+00
             -0.898609927489641E+00
             -0.110799176660272E+01
              0.152383712603036E+01
             -0.129952963855155E+00
             -0.785122228074035E+00
             -0.953629897537600E-01
             -0.279357297013378E+00
              0.751452860942786E+00
              0.720144179176029E+00
             -0.378962054764321E+00
             -0.394843608520481E-01
             -0.531758740270507E+00
             -0.676140000310209E+00
             -0.521497284074387E+00
             -0.191047676951186E+01
             -0.467570787814759E-01
             -0.132217798782947E+01
             -0.113732868237722E+01
             -0.793859122575856E+00
              0.392388536147131E+00
             -0.776361830501637E+00
              0.431779758324021E+00
             -0.121146045325457E+01
             -0.693807715407502E-02
             -0.831057724719583E+00
              0.107841321588685E+00
              0.149217019161628E+00
              0.618249548315516E+00
             -0.381783539521717E+00
             -0.383156542538114E+00
              0.577732899878016E+00
              0.118121396299324E+01
              0.621869512676616E+00
              0.200001953839976E+00
             -0.141665993614950E+01
             -0.261799580661378E+00
             -0.544659302679012E+00
             -0.123012537233027E+01
              0.847478745323071E+00
             -0.658330716698108E+00
             -0.145171174812042E+00
             -0.491550788172725E+00
             -0.197594147547658E+01
              0.109250989406993E+01
             -0.336016561287371E+00
              0.769532526058232E+00
             -0.145875527094408E+01
              0.125865119561400E+01
              0.999085631378334E-01
             -0.547287989240572E+00
              0.144778329814816E+00
             -0.444229959676557E+00
             -0.130259886902357E+01
              0.353681058034298E+00
              0.643490138687021E+00
              0.620758371101005E-02
             -0.670723093092825E+00
             -0.259957468391199E+00
              0.378200763251937E+00
              0.685508991201644E+00
              0.123423122063766E+01
              0.456689790242731E+00
             -0.454534464227035E+00
              0.183648328405778E+01
              0.486167350396822E+00
              0.854437052391381E+00
             -0.292684119129344E+00
              0.598919108031611E+00
              0.405435501648124E+00
             -0.120752083039587E+01
             -0.433408622282101E+00
             -0.761952252254899E+00
             -0.718489742063534E+00
             -0.192737838098306E+00
             -0.219482647084408E+00
             -0.812802305138046E+00
             -0.221060214256214E+01
             -0.536063630082325E+00
              0.316272238843602E+00
              0.104564096705280E+00
              0.235285636664986E+00
              0.855432368077569E+00
              0.284771375449915E+00
              0.618932810764308E+00
             -0.876488269703260E+00
              0.854164589901934E+00
             -0.830201530670722E+00
             -0.135872826419267E+01
              0.364526338799013E+00
             -0.768669434937146E+00
             -0.810296062122092E+00
             -0.312364291972686E+01
             -0.158989916001244E+00
              0.161925137803403E+01
              0.841206839828031E+00
             -0.197969808118412E+00
             -0.196231990777870E+00
              0.728586978476126E+00
              0.125254149294778E+01
             -0.762434659052974E+00
             -0.255935675464956E+00
             -0.678554163114041E+00
             -0.669586640541569E+00
             -0.623301172906849E+00
              0.274243370786487E+00
              0.141441762489445E+01
             -0.129032630473107E+01
             -0.104975868696894E+01
              0.475107415694147E-01
             -0.262917515063090E+00
             -0.370363987055433E+00
             -0.178626888676787E+01
              0.113495346911826E+01
              0.417719445542863E+00
              0.135379115957928E+00
              0.103549008236350E+01
             -0.609330830450749E+00
              0.665552575694032E+00
              0.569789092468094E+00
              0.899465786549802E-01
             -0.163644803800894E+00
              0.209077866568696E+00
             -0.290600348874489E+00
              0.971192280842762E+00
             -0.833511197865328E+00
              0.863023741709305E+00
              0.189951439308049E+00
              0.287363697494274E+00
              0.397407530721358E+00
             -0.157407068268473E+01
              0.149099200766952E+00
             -0.128228379471929E+01
             -0.963900692719874E+00
             -0.958653263303047E+00
             -0.979511453421688E+00
              0.318440587872182E-01
              0.325859783379859E+00
              0.960915032106448E+00
              0.166345311252080E+00
              0.273182239704643E+00
             -0.138272829681843E+01
             -0.566099578318156E+00
              0.631542100802151E+00
             -0.552819096939627E-02
             -0.404287424491407E-01
             -0.182485257761133E+00
              0.725466804538088E+00
             -0.179102837696886E+01
              0.267538610945468E+00
              0.465786183291649E+00
              0.787684392058768E+00
              0.752089307089014E+00
             -0.112060092864035E+01
              0.266606274584118E+00
              0.108039845305221E+00
              0.145028652746717E+00
              0.477400298839461E-01
             -0.394434249444966E+00
             -0.800701450123712E+00
              0.328174903727291E+00
              0.115841050586296E+01
             -0.759674155973364E-01
              0.250426198644910E+00
              0.224465453740477E+00
             -0.581654290705169E+00
             -0.585776589374088E+00
             -0.236776698780907E+01
             -0.782801099109840E+00
             -0.107090107709256E+01
             -0.152579278725845E+00
             -0.129800047251037E+01
              0.149747318887430E+01
             -0.641529560831103E+00
             -0.105529116842157E+01
             -0.309681313277969E+01
              0.133457080567538E+01
              0.276612439182703E+00
              0.629826151614110E-01
             -0.119334594871975E+01
              0.827025986741319E-01
             -0.281747597088344E+00
             -0.619720143806163E+00
              0.147427252070944E+00
              0.616100409475023E+00
              0.120806998213971E+00
             -0.350991678975536E+00
              0.208016350385964E-01
              0.653365449849908E-02
              0.275908767369778E+00
             -0.129429426569383E+01
              0.139785874484076E+01
             -0.812184884214345E+00
             -0.504639076574956E+00
             -0.924499658284658E+00
             -0.203828921935112E+01
              0.118548336628373E+00
             -0.104877162895951E+01
             -0.415152155302518E+00
              0.622378205330669E+00
             -0.496081996743062E+00
             -0.162507057136358E+00
             -0.235265381297181E+00
             -0.475239070161912E+00
              0.430027622538519E-01
              0.100013196852306E+01
             -0.103440866192254E+01
              0.196571854732878E+01
             -0.431034893912431E+00
              0.670938092362664E+00
             -0.272561366350745E+00
              0.264147874741339E+00
             -0.247794249691315E+00
              0.902825364247979E+00
              0.126855678373039E+01
              0.354665949738113E+00
              0.981563196264618E+00
             -0.628523870688484E+00
             -0.981015665159706E-01
             -0.503328188999866E+00
              0.123233053751069E+01
              0.106770855204165E+01
              0.789499803991975E+00
             -0.274300241230257E+00
             -0.521049524185939E+00
              0.473868852975919E+00
             -0.526063602055308E+00
             -0.286120389376713E+00
             -0.136052783989474E+00
             -0.655663650303998E+00
              0.996126188898919E+00
             -0.181874014020399E+00
              0.714595363147566E+00
              0.360956712422630E+00
              0.328019941367463E+00
             -0.686576357213410E+00
              0.566990420434635E+00
             -0.275031796932520E+00
             -0.145941684770306E+00
             -0.278390552704941E-01
             -0.994512668283175E+00
              0.155029911618814E+01
             -0.570411824156850E+00
              0.208043550320323E-01
              0.446604434979641E+00
              0.386077458256226E+00
              0.148222912552290E+01
             -0.437825032655057E+00
              0.149625770432759E+01
              0.132273738667908E+01
             -0.186906485743744E+01
              0.173457415071164E+00
             -0.376350845339558E+00
              0.194685951854594E+00
              0.867413670144570E-01
              0.370157284119280E+00
              0.125339106292851E+01
              0.184983720472760E+01
             -0.148223665514036E+01
              0.151664722181151E+01
             -0.191211057464074E+01
             -0.160189651066754E+01
             -0.253999850482929E+00
              0.331615850786093E-01
              0.149935296670130E+01
              0.685806480265729E+00
             -0.328731674969305E+00
             -0.170544259054754E+01
              0.131538930732464E+01
             -0.842399776849332E+00
              0.179219213733326E-01
             -0.721418736046089E-01
              0.255019348733305E+01
             -0.484272719925110E+00
             -0.205763583397573E+01
              0.603964336201038E+00
             -0.317557666251053E+01
              0.261153849143724E+00
             -0.751293876494071E+00
             -0.326860682666189E+00
             -0.534736634336926E+00
             -0.115616727050120E+01
              0.747313727282075E+00
             -0.677388656049796E+00
             -0.240689428681817E+00
             -0.149365327548451E+01
             -0.104214246529716E+00
             -0.102878690170122E+01
             -0.149049961391264E+01
             -0.220488036166334E+01
              0.176837769739232E+00
             -0.662760175322365E+00
              0.852559021768258E-01
             -0.220515600594315E+00
             -0.160513998112227E+01
             -0.123191431067021E+01
             -0.109944267358479E+01
             -0.108022092752774E+01
              0.102173334448551E+01
              0.183501015343865E+00
             -0.945924777217744E+00
             -0.455229425380530E+00
             -0.513911045716488E+00
              0.765788230188430E+00
             -0.650284225108725E+00
             -0.160670781268759E+00
             -0.535688510325819E+00
             -0.791739995818627E+00
             -0.774787192980163E+00
              0.814231303785284E+00
             -0.258107597061636E+00
             -0.175359087071577E+01
              0.156520600561800E+01
              0.919865623038247E+00
              0.100779925788457E+00
             -0.153735418696914E+01
             -0.148763490005044E+01
              0.156701596950699E+00
              0.404931765335768E-01
             -0.649083664244003E+00
             -0.920639677746458E+00
              0.656606272575740E+00
             -0.126157804099844E+00
              0.521272487623916E+00
              0.926597082208534E+00
              0.714298055655732E+00
              0.517826103664033E+00
              0.441767614507037E+00
             -0.441769845827313E+00
             -0.268693465209545E+00
             -0.337100666261311E+00
             -0.729636467392135E+00
             -0.967748380454298E+00
             -0.122680723130515E+01
             -0.728764519834983E+00
             -0.234650047236388E+00
             -0.151932544011617E+01
             -0.264984747683666E+00
              0.617732956321355E+00
             -0.153735697861116E+01
              0.647413829061123E+00
              0.493051066916366E+00
             -0.137291345943658E+01
             -0.111440242446892E+01
             -0.411570477530081E+00
              0.297953485200341E+00
             -0.800014212017331E+00
              0.144998128663536E+01
              0.128685901376840E+01
             -0.150060251084511E+01
              0.906418634811864E+00
              0.714685243887720E+00
              0.183377624465459E+00
              0.407469592726318E+00
             -0.819494494399904E+00
             -0.299157425440669E+00
              0.874076294786885E-01
              0.379998340249047E+00
              0.845567644511373E+00
             -0.107726992624320E+01
             -0.166627830836241E+00
              0.345401929971455E+00
              0.564520179946157E-01
             -0.641596793121100E+00
              0.356827809508658E+00
             -0.523049198194772E+00
             -0.332081746776678E+00
              0.216280130729212E-01
             -0.120794478515776E+01
              0.771147919472570E-02
             -0.280437216633707E+00
             -0.286245238581368E+00
              0.210195563507207E+00
             -0.106167162680511E+01
              0.108601104091479E+01
             -0.440147000641188E+00
             -0.258020832821702E+01
             -0.169782636362019E+01
              0.703435360073335E+00
             -0.748503214028120E+00
             -0.420952743703609E+00
             -0.515603666267549E+00
             -0.343995496407086E+00
             -0.200942716685997E+01
             -0.879121340706206E-01
             -0.122254249566278E+01
             -0.600564789096929E+00
              0.465741525829610E+00
              0.148462404941124E+01
              0.531229878652012E-01
              0.490758819377408E-01
              0.116423497590148E+01
             -0.103203121911124E+01
              0.597990641822849E+00
              0.148675740415053E+00
             -0.960820686942883E+00
             -0.501041739795432E+00
              0.405534736225963E+00
              0.443355152600722E-01
              0.285719486294413E+00
              0.299251395946375E+00
             -0.461578003104781E+00
             -0.571525708575468E+00
             -0.971929966128457E+00
              0.948975215496870E+00
             -0.131300890287035E+01
             -0.960288638626630E+00
              0.292233884324585E+00
             -0.169239980080172E+01
              0.396748484842851E+00
              0.112029848655291E+01
             -0.194440378600918E+00
              0.318364497302955E+00
             -0.585788010857549E+00
             -0.421441196136226E+00
              0.207872417718093E+00
              0.707628224651489E+00
             -0.731725631041355E+00
              0.470532335297892E+00
             -0.276645838408093E+00
              0.225209353963205E-01
              0.411137090382757E+00
              0.261189194880264E+00
             -0.180676269397924E+00
             -0.170213053710810E-01
              0.311604337606918E+00
              0.530686224729405E+00
             -0.137699108643882E+01
              0.291953385245591E-02
              0.108110678620924E+01
             -0.180051995614360E+01
              0.650562298703255E+00
             -0.226541286101427E+01
             -0.192710565810448E+00
             -0.290061123805152E+00
             -0.744203278487099E-01
             -0.201668048586638E+00
             -0.558189318641730E+00
             -0.140441306503494E+00
              0.325109458466418E+00
             -0.430387026953437E+00
              0.220048996552602E+00
              0.174655467326288E+01
             -0.116043367288802E+01
             -0.514491557662854E+00
              0.771403963079737E+00
              0.416544925470458E+00
              0.776972932054465E+00
              0.319907551912377E+00
              0.434930254939225E+00
             -0.291067498021377E+00
             -0.974337928249743E+00
             -0.854699759030524E+00
             -0.583590072915136E+00
              0.682130850362199E-01
             -0.816967974452087E+00
             -0.227580130026728E+00
              0.130661683049818E+00
              0.469389375299773E+00
             -0.141819003964982E+00
              0.112509080968473E+01
             -0.118439031006093E+01
             -0.547923430542925E-01
             -0.159387614971767E+00
              0.607323934807643E+00
             -0.883171527947924E+00
             -0.560947541329345E+00
              0.369734442943777E+00
              0.966474324018198E+00
              0.141872969414728E+01
              0.653529455849869E+00
              0.880150653995321E+00
             -0.513389151575685E+00
              0.122432825421739E+01
              0.124047428405137E+01
             -0.932057532817847E-01
              0.681753771721366E+00
              0.769464679957594E+00
             -0.415220397412730E+00
              0.193629995913347E+00
              0.129174009505600E+01
             -0.451223533816868E+00
             -0.191511895407128E+00
             -0.124693315871991E+01
              0.483136686497449E+00
             -0.232230113308679E+00
              0.398071279813824E+00
              0.784103305868262E-01
             -0.781937206378405E+00
              0.908188434640368E+00
              0.786716204526026E+00
             -0.570820720636007E+00
              0.318506486133254E+00
             -0.112384461694350E+01
             -0.106453738824655E+01
              0.485148717497772E+00
             -0.134709161969902E+01
             -0.657466418488253E+00
              0.825489915290127E-01
              0.166784390191171E+01
             -0.419092453024111E+00
             -0.191855462579426E+00
             -0.344201156158743E+00
              0.220823516609329E+01
              0.383734330869817E+00
             -0.809821828336282E+00
              0.134571625695204E+01
              0.121416474351386E+01
              0.639069058758510E+00
              0.153892731713794E+01
              0.163061843465315E+01
             -0.130550504941038E+00
             -0.600629670483496E+00
             -0.545466710449746E+00
              0.506555915935227E+00
              0.746825282173618E+00
             -0.121043068458929E+00
             -0.452826689323526E+00
             -0.113370636964981E+01
             -0.475495383949728E+00
             -0.912411932944892E+00
              0.638049561850624E+00
              0.314154545844350E+00
              0.114678965879159E+01
              0.205810014041353E+00
             -0.473670915304984E+00
             -0.175210244106791E+00
              0.796566196100548E+00
              0.222467098199065E+00
              0.114625552383661E+01
              0.110970276999129E+01
             -0.213720040797399E+00
             -0.139253357269275E+00
             -0.192026046748014E+01
              0.985824272296394E+00
             -0.568263805353428E-01
              0.106454850736556E+01
             -0.461415110204745E+00
             -0.126303241827882E+01
              0.370271093567071E+00
              0.139305416667614E+01
             -0.501299386280636E+00
              0.133674524018806E+01
             -0.140898884865119E+01
             -0.495235502286643E+00
             -0.163926817863028E+01
              0.389584323910221E+00
              0.153784899846881E+00
              0.113543332452374E+00
             -0.120049263635243E+01
              0.175761959482529E+01
              0.103913717353476E+01
              0.128582663795198E+00
             -0.964786942792597E+00
              0.396602028561901E+00
             -0.422699486609726E+00
             -0.249041818441297E+00
             -0.485465286328521E+00
              0.355202647922365E+00
             -0.257797001351960E+00
             -0.357215442711198E+00
              0.438326271665144E+00
              0.455930977748353E+00
             -0.174424541627157E+01
              0.381187803590993E+00
              0.128722844348148E+01
              0.833942017229986E+00
             -0.287335771228250E+00
              0.529088461277394E-02
             -0.722800924363635E+00
              0.111404499977164E+01
              0.230416312572680E+00
             -0.795100039173260E-01
             -0.100795683741497E+00
              0.215038348716612E+01
             -0.848724143653365E-01
              0.543751447708196E+00
              0.141610236478869E+01
              0.192076364681026E+01
              0.118013722982979E+01
              0.809795173525101E+00
             -0.119377361883535E+01
             -0.894398275337544E+00
              0.713886402640806E+00
              0.104252627476109E-01
              0.598356343025564E+00
              0.269213371174858E+00
              0.123114545427433E+01
             -0.155142248165957E+01
             -0.969512591276813E+00
             -0.193251540311480E+00
             -0.169232074370416E+01
              0.349624100852462E+00
              0.835310372370802E+00
              0.122287587158947E+00
             -0.411862816385648E+00
              0.419733483122496E+00
              0.268224713613338E+01
              0.585935665688387E+00
              0.344357073049091E+00
             -0.967692116862187E+00
             -0.119897938944390E+01
             -0.269434030810275E+00
              0.528720207890749E+00
             -0.114583275046289E+00
              0.443820666920834E+00
              0.669875580626156E+00
             -0.127290148484449E+01
              0.523350246301641E+00
              0.777314222924854E+00
              0.116418126164697E+01
             -0.194239632295147E+00
              0.537865130686814E-01
             -0.141180560710248E+00
             -0.904644764214111E+00
             -0.142402143475372E+01
              0.154241344380535E+01
             -0.195250582194889E+00
             -0.108319799379428E+01
              0.109124670671551E+00
             -0.569391519224245E+00
              0.168980833813920E+01
             -0.417624169983327E+00
             -0.718076980723652E+00
              0.673532650288458E+00
             -0.281671890140976E+00
              0.907225151711328E+00
             -0.456454540220141E-01
              0.186994150970395E+01
              0.978715038639434E+00
              0.150743856293754E+00
             -0.753130067834016E+00
              0.542640465450053E+00
             -0.106985901664076E+01
             -0.112369442682618E+00
              0.125872029803645E+01
             -0.494042017142615E+00
             -0.874008244763648E+00
             -0.422000965725299E+00
              0.102881866095198E+01
              0.261500449835909E+00
             -0.162576473398810E+01
              0.669388652352785E+00
              0.186248347668629E+00
              0.188353319083960E+00
             -0.945756295658629E+00
              0.176742122403639E+00
              0.688474641853333E+00
              0.959778202833161E+00
              0.121928057135950E+01
              0.653962068050126E+00
              0.169900389212971E+00
             -0.103533884890827E+01
             -0.818869026721701E+00
             -0.134520519404255E+01
             -0.216079822685407E+00
              0.658052482375446E+00
             -0.291904574275643E-01
              0.102792998534696E+01
             -0.615977808195483E+00
              0.352822960793459E+00
             -0.381291259420780E+00
             -0.512637514881371E+00
              0.112949990169552E+01
              0.112426418750017E+00
              0.117921588134070E+01
              0.104866703819468E+00
              0.424493679759009E+00
             -0.306799650397119E+00
              0.119464151824696E+01
             -0.253192705326502E+00
             -0.353863895175110E-01
             -0.152647968588923E+01
             -0.162788996632985E+00
              0.138386020442806E+01
              0.131880732074875E+01
              0.448263809877526E+00
             -0.289337662911027E+00
              0.460638172428092E-01
             -0.412341444629135E+00
             -0.279287274531382E+00
              0.171362855396491E+01
              0.101851688422300E+00
             -0.531301702682589E+00
             -0.212254105156109E+01
             -0.933192394409744E+00
             -0.725055733441607E+00
             -0.124568631344818E+01
             -0.114816168105459E+01
             -0.141781596870280E+01
             -0.872114036369051E+00
             -0.592109170597281E+00
             -0.914530249039359E+00
              0.865856490624240E+00
             -0.410115771219916E+00
             -0.181929280173941E+01
              0.825675818807702E+00
             -0.632928595303373E+00
             -0.155925182488320E+01
              0.198398539065762E+01
             -0.474835546124807E+00
              0.329100801870478E+00
              0.780198532003434E+00
              0.173710831965585E+00
              0.470118133013628E+00
              0.118529359983679E-01
              0.181677171171274E-01
             -0.220419343997309E+00
             -0.140272938762032E+01
              0.210701628271972E+00
             -0.241303007278483E+01
              0.132983259777066E+01
             -0.783257934642031E+00
             -0.322270688811876E+00
             -0.381587891467978E+00
              0.376883937503831E+00
             -0.340536549090745E+00
              0.595136483599838E+00
             -0.112491142382958E+01
              0.746998794290873E+00
              0.786811209441427E+00
              0.249798949717665E+00
              0.151736844501584E+00
              0.415290090482129E+00
              0.162976825847511E+00
              0.629566808708323E+00
             -0.116484927783265E+00
             -0.133811364133600E+01
              0.193915435969603E+00
             -0.648490317907315E+00
             -0.451022662333278E-01
              0.101745004911183E+01
             -0.158609446019746E+01
              0.117774384771065E-01
              0.463180868839608E-01
              0.172894025510897E+00
              0.617102105462664E+00
             -0.258633647730069E+00
              0.165486673762289E+01
              0.805870854437896E+00
             -0.317636745194469E+00
             -0.227711153364063E+00
              0.101832655086747E+00
              0.156075300259113E+01
             -0.992351069721213E+00
             -0.200258561995112E+01
              0.554270958156702E+00
             -0.128300349718384E+00
             -0.268954121725427E+00
              0.368112981617192E+00
              0.150877422558986E+01
              0.841273283800275E+00
             -0.348932109337959E+00
             -0.102985315868354E+01
             -0.214772810753508E+00
              0.547470397061694E+00
             -0.326955623111870E+00
             -0.147104014410503E+01
             -0.136028481091917E+00
             -0.186710778342116E+01
             -0.979473365170238E+00
              0.164635935777455E+01
             -0.998200853544358E+00
             -0.137359246447668E+01
             -0.105207653053509E+01
             -0.757216739342609E+00
              0.630552315186315E+00
              0.164537081612805E+01
             -0.135667748187646E+00
              0.527711658556536E+00
             -0.360784691389453E+00
             -0.131376624741750E+01
              0.101167906119865E+01
             -0.923427209051729E+00
              0.539077930232894E+00
              0.604517978856687E+00
             -0.280187331883731E+00
              0.799857395387224E+00
              0.793647741896956E+00
              0.226622680387266E+01
             -0.252267303359700E+00
             -0.101212430004917E+01
             -0.130475886063863E+01
             -0.340499548746846E+00
             -0.739467394630550E+00
              0.189139551363695E+01
             -0.879960608034613E+00
              0.189492721789389E+00
              0.855344170451042E-01
             -0.413467869753292E+00
             -0.161912847019861E+01
             -0.127646281657884E+00
              0.195059707028870E+01
              0.364419230883775E+00
              0.161224340710396E+00
             -0.107338932934910E+01
             -0.106571583499332E+01
             -0.296163333475407E+00
              0.894327726064812E+00
             -0.507442600046386E+00
              0.199687833725173E+01
             -0.851544364747906E+00
              0.361473882368521E+00
             -0.340822010315382E+00
             -0.120599856165763E+01
              0.121575429337732E+00
             -0.109016564086191E+01
             -0.144453900394749E+01
              0.170572588939191E+00
              0.310213447291732E-01
              0.948727482528315E+00
              0.506496041384544E+00
             -0.669692978075526E+00
              0.456492749369675E+00
             -0.165150613923562E+01
             -0.964912717426149E+00
              0.183053994360169E+01
              0.128054216169401E+00
             -0.153260485633156E+00
             -0.522782234650315E+00
              0.295756781813772E-02
             -0.203255967986724E+00
              0.172312586938314E+01
              0.784674921402465E+00
             -0.216866967121828E+00
             -0.630672053415644E-01
             -0.776208543374656E+00
             -0.306633679227676E+00
             -0.125719400707947E+01
              0.995937876051606E+00
              0.121793768335107E+00
              0.184092319022621E+00
              0.318644593926392E+00
             -0.237689761817552E+00
             -0.421052210867948E+00
              0.692648112794789E-01
             -0.213611801625260E+01
             -0.230347074449162E+00
             -0.143432641814657E+00
             -0.130757067501471E+00
              0.103172877083667E+01
              0.122287347419701E+01
              0.330441756912620E+00
             -0.182638510071442E+01
              0.126596943048676E+01
             -0.481692350954111E+00
             -0.728258711484722E+00
             -0.171117481145796E+01
             -0.593431596092330E+00
              0.115816376700324E+01
              0.611191897863383E+00
              0.315648751570230E+00
              0.663880083621406E+00
             -0.108810491325116E+01
             -0.923744999786826E+00
              0.120575835416740E+01
              0.818547054219956E+00
              0.954627069956123E+00
              0.669322010390578E-01
              0.185061142130379E+00
              0.103680667932586E+01
              0.195322012654405E+01
             -0.403394026360471E+00
              0.755275211201202E+00
             -0.433877353344760E+00
             -0.856853512381501E+00
             -0.652278010105095E+00
             -0.599024476953363E+00
             -0.268827879095260E+00
             -0.958104759760130E+00
             -0.423756219363195E+00
             -0.255419111264137E+01
              0.614070585221572E+00
              0.544028874032534E+00
             -0.425365181867887E-01
             -0.740806895030373E+00
             -0.402205540344462E+00
             -0.107083981954426E+01
              0.141814934176772E+00
              0.156546490586468E+01
             -0.361566675916396E+00
             -0.360946303791935E+00
              0.356641467387199E+00
             -0.955238401121240E+00
              0.171999005321141E+01
              0.338441805905491E+00
              0.175089647383066E+00
              0.105010143361779E+01
             -0.585956467502271E-01
              0.115798359867045E+01
              0.364175156975921E+00
             -0.919695985159583E-01
              0.274884480008925E+00
             -0.141299257564728E+00
              0.137814163602956E+01
              0.134057859021995E+00
              0.373767925611642E+00
             -0.156504387496064E+00
              0.201454565546132E+00
             -0.184911978800768E+01
             -0.725274251131962E+00
             -0.942739318221236E+00
              0.104457799036139E+01
             -0.676225475740347E+00
             -0.114482005206719E+01
              0.115812135287868E+01
             -0.295159819571459E+00
              0.837931377824122E+00
             -0.177536128662327E+01
              0.417317200818960E+00
              0.107957095712712E+00
              0.935675206874222E-01
             -0.232542964436109E+00
             -0.115313214511712E+00
              0.978916374099873E+00
              0.630858695041550E-01
             -0.989414207654963E+00
             -0.399887081258037E+00
              0.417833472500287E+00
             -0.228200594272252E+01
             -0.175982609275314E+01
              0.319988245780012E-01
              0.280303470624471E+00
             -0.945673638074820E+00
             -0.117612151552153E-01
              0.206512071734787E+01
              0.643386204351817E+00
             -0.107060940063325E+01
              0.155373703396543E+00
             -0.201874955632584E+00
              0.234358256569345E+00
             -0.662645587068662E+00
              0.403756008365707E+00
              0.467341011518219E+00
             -0.179398135180454E+00
              0.219463458873124E+01
             -0.116474294756185E+00
             -0.623651524929699E+00
              0.571093867392118E+00
              0.845100051294143E+00
             -0.667676426486520E+00
             -0.216541718234847E-01
              0.190463889666536E+01
             -0.496253875835961E-01
              0.100891989639816E+01
              0.325799096797127E+00
             -0.176234335068161E+00
             -0.325054529906904E+00
              0.988829232111737E+00
             -0.116020044835370E+01
             -0.642306030373794E-01
             -0.376784835352996E+00
             -0.818603101513049E+00
              0.208300577306875E+00
              0.438338503664022E+00
              0.766549188024079E-02
             -0.457324935843566E-01
             -0.784140583821035E+00
              0.335930200577597E+00
             -0.344244933031583E-01
             -0.458377442255716E+00
             -0.423206575633369E+00
              0.397750276095298E+00
             -0.221528487280764E-01
             -0.752402429616384E+00
             -0.208168113793291E+01
              0.948420078544947E-01
              0.357377314010131E+00
             -0.913593543457351E+00
             -0.470221008202618E+00
              0.159950253521075E+01
              0.202428751891918E+00
              0.820056006052102E+00
              0.180413112909247E+00
              0.755168920118191E+00
              0.422348681796922E-01
             -0.788920256850440E+00
             -0.146762862795569E+00
              0.121192802509992E+00
              0.576274388978552E+00
              0.153297408922872E+01
              0.967716687217878E+00
              0.427933384915571E-01
              0.189765735586982E+00
              0.117887760730113E+01
              0.540441129679963E+00
             -0.141345116692297E+01
             -0.547728269413068E+00
              0.261580166763510E+00
              0.195178647109621E+00
              0.504956390627841E+00
             -0.103120640697869E+01
              0.132298767257845E+00
              0.769209800046737E+00
              0.968606704686170E+00
             -0.842854865695935E+00
             -0.869964832831194E-03
             -0.482384830189453E-01
             -0.407700131567712E+00
             -0.545103733189975E+00
             -0.259248611312180E+00
             -0.161318953652527E+00
              0.203321576784892E+00
              0.817418952911628E+00
             -0.637852227653249E+00
              0.158973368265877E+01
              0.674908698766420E+00
              0.489417076804026E+00
              0.702372852067943E+00
              0.538620211264305E+00
              0.626995426349562E+00
              0.109416205790011E+01
             -0.929049866234125E+00
              0.123420332645795E+01
             -0.219963042140846E+01
              0.629797629374821E+00
             -0.207838827460882E+01
              0.158741041278724E+01
              0.152859660617306E+01
             -0.171280462998697E+00
             -0.947470006819946E+00
             -0.825237549545362E+00
             -0.109357858453930E+01
             -0.126826658398170E+01
              0.105618874204467E+01
              0.850850839718958E+00
              0.484033502754915E+00
              0.563293558456040E+00
              0.819471652561615E+00
             -0.794579040946015E+00
             -0.294415137358596E+00
              0.105240515434723E+01
             -0.223429644866489E+00
              0.954695700592326E+00
              0.149372487509412E+01
             -0.388427802903627E-01
             -0.146577602645181E+01
              0.522649275266112E-01
              0.549089378489357E-01
             -0.203779998216014E+00
              0.780941201721639E-01
             -0.129075667593881E+01
             -0.243375041390261E+00
              0.243392724552957E+00
              0.223514652128448E+00
              0.961795939938856E+00
             -0.798620164430625E+00
              0.110759542270630E+01
             -0.760680870654132E+00
              0.491071893961960E+00
              0.849964361807261E+00
 
 BEEF-vdW xc energy contributions
           1 :   -14.1281236886392     
           2 :    11.8999872257815     
           3 :   -8.70326628056044     
           4 :    5.67253787848091     
           5 :   -3.27886425332157     
           6 :    1.58563515033132     
           7 :  -0.488859626153518     
           8 :  -0.156779625985562     
           9 :   0.501530730414109     
          10 :  -0.671099762741646     
          11 :   0.735547622039373     
          12 :  -0.717116240804247     
          13 :   0.628391977871708     
          14 :  -0.499438607452467     
          15 :   0.364752603433853     
          16 :  -0.244039660414325     
          17 :   0.141189381678707     
          18 :  -5.375062985845958E-002
          19 :  -1.894340816925499E-002
          20 :   7.567487003292328E-002
          21 :  -0.114543550314011     
          22 :   0.133706592642886     
          23 :  -0.135088050153595     
          24 :   0.122879907856491     
          25 :  -0.100917559813674     
          26 :   7.348918786177983E-002
          27 :  -4.484533162759519E-002
          28 :   1.558524309117004E-002
          29 :   1.437975260134294E-002
          30 :  -4.180347924514827E-002
          31 :   -1.71036940456077     
          32 :   -1.07673671384941     

     Writing output data file ./pwscf.save/
 
     init_run     :     61.10s CPU     63.38s WALL (       1 calls)
     electrons    :    389.04s CPU    412.64s WALL (       1 calls)
     forces       :     22.84s CPU     24.81s WALL (       1 calls)

     Called by init_run:
     wfcinit      :      1.38s CPU      1.42s WALL (       1 calls)
     potinit      :     52.03s CPU     53.77s WALL (       1 calls)
     hinit0       :      6.34s CPU      6.44s WALL (       1 calls)

     Called by electrons:
     c_bands      :     64.27s CPU     64.36s WALL (      13 calls)
     sum_band     :     26.57s CPU     29.58s WALL (      13 calls)
     v_of_rho     :    235.04s CPU    253.02s WALL (      14 calls)
     newd         :     11.29s CPU     14.41s WALL (      14 calls)
     PAW_pot      :      1.22s CPU      1.22s WALL (      14 calls)
     mix_rho      :     97.90s CPU     99.23s WALL (      13 calls)
     vdW_kernel   :     33.46s CPU     33.47s WALL (       1 calls)

     Called by c_bands:
     init_us_2    :      0.92s CPU      0.94s WALL (      27 calls)
     regterg      :     62.58s CPU     62.66s WALL (      13 calls)

     Called by *egterg:
     rdiaghg      :      0.02s CPU      0.02s WALL (     101 calls)
     h_psi        :     57.34s CPU     57.37s WALL (     102 calls)
     s_psi        :      0.83s CPU      0.83s WALL (     102 calls)
     g_psi        :      0.20s CPU      0.20s WALL (      88 calls)

     Called by h_psi:
     h_psi:calbec :      0.92s CPU      0.93s WALL (     102 calls)
     vloc_psi     :     55.26s CPU     55.27s WALL (     102 calls)
     add_vuspsi   :      0.85s CPU      0.85s WALL (     102 calls)

     General routines
     calbec       :      1.13s CPU      1.13s WALL (     119 calls)
     fft          :    241.00s CPU    241.02s WALL (    2755 calls)
     ffts         :     42.72s CPU     42.72s WALL (     501 calls)
     fftw         :     52.82s CPU     52.82s WALL (     616 calls)
 
     Parallel routines
 
     PWSCF        :  15m46.69s CPU  17m 5.71s WALL

 
   This run was terminated on:  14:45: 9  21Dec2022            

=------------------------------------------------------------------------------=
   JOB DONE.
=------------------------------------------------------------------------------=
