
     Program PWSCF v.6.7MaX starts on 21Dec2022 at 14:30:20 

     This program is part of the open-source Quantum ESPRESSO suite
     for quantum simulation of materials; please cite
         "P. Giannozzi et al., J. Phys.:Condens. Matter 21 395502 (2009);
         "P. Giannozzi et al., J. Phys.:Condens. Matter 29 465901 (2017);
          URL http://www.quantum-espresso.org", 
     in publications or presentations arising from this work. More details at
     http://www.quantum-espresso.org/quote

     Parallel version (MPI), running on     1 processors

     MPI processes distributed on     1 nodes
     Reading input from o2-gas-ensemble.in
Warning: card &CELL ignored
Warning: card / ignored

     Current dimensions of program PWSCF are:
     Max number of different atomic species (ntypx) = 10
     Max number of k-points (npk) =  40000
     Max angular momentum in pseudopotentials (lmaxx) =  3
     file O.pbe-nl-kjpaw_psl.1.0.0.UPF: wavefunction(s)  2S 2P renormalized

     **************************************************************************
     Initializing libbeef V0.1.2 with the BEEF-vdW functional.
     Citation: Wellendorff et al., PRB 85, 235149 (2012).
     **************************************************************************


     IMPORTANT: XC functional enforced from input :
     Exchange-correlation= BEEF-VDW
                           (   1   4  43  14   2   0   0)
     Any further DFT definition will be discarded
     Please, verify this is what you really want


     gamma-point specific algorithms are used

     Subspace diagonalization in iterative solution of the eigenvalue problem:
     a serial algorithm will be used

 
     G-vector sticks info
     --------------------
     sticks:   dense  smooth     PW     G-vecs:    dense   smooth      PW
     Sum       29873   29873   7463              3758357  3758357  469925
 


     bravais-lattice index     =            0
     lattice parameter (alat)  =      40.0345  a.u.
     unit-cell volume          =   59859.5394 (a.u.)^3
     number of atoms/cell      =            2
     number of atomic types    =            1
     number of electrons       =        12.00
     number of Kohn-Sham states=           10
     kinetic-energy cutoff     =      60.0000  Ry
     charge density cutoff     =     240.0000  Ry
     scf convergence threshold =      1.0E-06
     mixing beta               =       0.7000
     number of iterations used =            8  local-TF  mixing
     Exchange-correlation= BEEF-VDW
                           (   1   4  43  14   2   0   0)

     celldm(1)=  40.034459  celldm(2)=   0.000000  celldm(3)=   0.000000
     celldm(4)=   0.000000  celldm(5)=   0.000000  celldm(6)=   0.000000

     crystal axes: (cart. coord. in units of alat)
               a(1) = (   1.000000   0.000000   0.000000 )  
               a(2) = (   0.000000   0.976340   0.000000 )  
               a(3) = (   0.000000   0.000000   0.955499 )  

     reciprocal axes: (cart. coord. in units 2 pi/alat)
               b(1) = (  1.000000  0.000000  0.000000 )  
               b(2) = (  0.000000  1.024233  0.000000 )  
               b(3) = (  0.000000  0.000000  1.046574 )  


     PseudoPot. # 1 for O  read from file:
     /users/bkreitz1/quantum-espresso/potentials/O.pbe-nl-kjpaw_psl.1.0.0.UPF
     MD5 check sum: eef08af8b58d9ec80f8fdb78829eb7cf
     Pseudo is Projector augmented-wave + core cor, Zval =  6.0
     Generated using 'atomic' code by A. Dal Corso  v.6.7MaX
     Shape of augmentation charge: PSQ
     Using radial grid of 1095 points,  4 beta functions with: 
                l(1) =   0
                l(2) =   0
                l(3) =   1
                l(4) =   1
     Q(r) pseudized with 0 coefficients 


     atomic species   valence    mass     pseudopotential
        O              6.00    15.99900     O ( 1.00)

     No symmetry found



   Cartesian axes

     site n.     atom                  positions (alat units)
         1           O   tau(   1) = (   0.4751844   0.4738483   0.4828276  )
         2           O   tau(   2) = (   0.5248156   0.5024922   0.4726713  )

     number of k points=     1  Gaussian smearing, width (Ry)=  0.0050
                       cart. coord. in units 2pi/alat
        k(    1) = (   0.0000000   0.0000000   0.0000000), wk =   2.0000000

     Dense  grid:  1879179 G-vectors     FFT dimensions: ( 200, 200, 192)

     Estimated max dynamical RAM per process >       2.70 GB

     Initial potential from superposition of free atoms

     starting charge   12.00000, renormalised to   12.00000

     negative rho (up, down):  2.047E-02 0.000E+00


     %%%%%%%%%%%%%%%%%%%%%%%%%%%%%%%%%%%%%%%%%%%%%%%%%%%%%%%%%%%%%%%%%%%%%%%%
     %                                                                      %
     % You are using vdW-DF, which was implemented by the Thonhauser group. %
     % Please cite the following two papers that made this development      %
     % possible and the two reviews that describe the various versions:     %
     %                                                                      %
     %   T. Thonhauser et al., PRL 115, 136402 (2015).                      %
     %   T. Thonhauser et al., PRB 76, 125112 (2007).                       %
     %   K. Berland et al., Rep. Prog. Phys. 78, 066501 (2015).             %
     %   D.C. Langreth et al., J. Phys.: Condens. Matter 21, 084203 (2009). %
     %                                                                      %
     %                                                                      %
     % If you are calculating the stress with vdW-DF, please also cite:     %
     %                                                                      %
     %   R. Sabatini et al., J. Phys.: Condens. Matter 24, 424209 (2012).   %
     %                                                                      %
     %%%%%%%%%%%%%%%%%%%%%%%%%%%%%%%%%%%%%%%%%%%%%%%%%%%%%%%%%%%%%%%%%%%%%%%%


     Starting wfcs are    8 randomized atomic wfcs +    2 random wfcs
     Checking if some PAW data can be deallocated... 

     total cpu time spent up to now is       60.6 secs

     Self-consistent Calculation

     iteration #  1     ecut=    60.00 Ry     beta= 0.70
     Davidson diagonalization with overlap
     ethr =  1.00E-02,  avg # of iterations =  6.0

     Threshold (ethr) on eigenvalues was too large:
     Diagonalizing with lowered threshold

     Davidson diagonalization with overlap
     ethr =  5.03E-04,  avg # of iterations =  7.0

     negative rho (up, down):  1.753E-02 0.000E+00

     total cpu time spent up to now is       98.4 secs

     total energy              =     -84.62585384 Ry
     estimated scf accuracy    <       0.06154131 Ry

     iteration #  2     ecut=    60.00 Ry     beta= 0.70
     Davidson diagonalization with overlap
     ethr =  5.13E-04,  avg # of iterations =  2.0

     negative rho (up, down):  1.560E-02 0.000E+00

     total cpu time spent up to now is      128.5 secs

     total energy              =     -84.62641068 Ry
     estimated scf accuracy    <       0.00794085 Ry

     iteration #  3     ecut=    60.00 Ry     beta= 0.70
     Davidson diagonalization with overlap
     ethr =  6.62E-05,  avg # of iterations = 12.0

     negative rho (up, down):  1.538E-02 0.000E+00

     total cpu time spent up to now is      162.4 secs

     total energy              =     -84.62828986 Ry
     estimated scf accuracy    <       0.00445081 Ry

     iteration #  4     ecut=    60.00 Ry     beta= 0.70
     Davidson diagonalization with overlap
     ethr =  3.71E-05,  avg # of iterations =  1.0

     negative rho (up, down):  1.524E-02 0.000E+00

     total cpu time spent up to now is      192.1 secs

     total energy              =     -84.62863448 Ry
     estimated scf accuracy    <       0.00176520 Ry

     iteration #  5     ecut=    60.00 Ry     beta= 0.70
     Davidson diagonalization with overlap
     ethr =  1.47E-05,  avg # of iterations =  7.0

     negative rho (up, down):  1.697E-02 0.000E+00

     total cpu time spent up to now is      222.9 secs

     total energy              =     -84.62870488 Ry
     estimated scf accuracy    <       0.00012534 Ry

     iteration #  6     ecut=    60.00 Ry     beta= 0.70
     Davidson diagonalization with overlap
     ethr =  1.04E-06,  avg # of iterations = 15.0

     negative rho (up, down):  1.818E-02 0.000E+00

     total cpu time spent up to now is      257.7 secs

     total energy              =     -84.62871100 Ry
     estimated scf accuracy    <       0.00006264 Ry

     iteration #  7     ecut=    60.00 Ry     beta= 0.70
     Davidson diagonalization with overlap
     ethr =  5.22E-07,  avg # of iterations =  2.0

     negative rho (up, down):  2.164E-02 0.000E+00

     total cpu time spent up to now is      288.1 secs

     total energy              =     -84.62874578 Ry
     estimated scf accuracy    <       0.00013942 Ry

     iteration #  8     ecut=    60.00 Ry     beta= 0.70
     Davidson diagonalization with overlap
     ethr =  5.22E-07,  avg # of iterations =  5.0

     negative rho (up, down):  2.258E-02 0.000E+00

     total cpu time spent up to now is      319.5 secs

     total energy              =     -84.62876223 Ry
     estimated scf accuracy    <       0.00001710 Ry

     iteration #  9     ecut=    60.00 Ry     beta= 0.70
     Davidson diagonalization with overlap
     ethr =  1.43E-07,  avg # of iterations =  1.0

     negative rho (up, down):  2.322E-02 0.000E+00

     total cpu time spent up to now is      349.6 secs

     total energy              =     -84.62876544 Ry
     estimated scf accuracy    <       0.00000711 Ry

     iteration # 10     ecut=    60.00 Ry     beta= 0.70
     Davidson diagonalization with overlap
     ethr =  5.93E-08,  avg # of iterations =  6.0

     negative rho (up, down):  2.352E-02 0.000E+00

     total cpu time spent up to now is      381.5 secs

     total energy              =     -84.62876605 Ry
     estimated scf accuracy    <       0.00000511 Ry

     iteration # 11     ecut=    60.00 Ry     beta= 0.70
     Davidson diagonalization with overlap
     ethr =  4.25E-08,  avg # of iterations =  2.0

     negative rho (up, down):  2.348E-02 0.000E+00

     total cpu time spent up to now is      412.1 secs

     total energy              =     -84.62876168 Ry
     estimated scf accuracy    <       0.00000224 Ry

     iteration # 12     ecut=    60.00 Ry     beta= 0.70
     Davidson diagonalization with overlap
     ethr =  1.87E-08,  avg # of iterations =  2.0

     negative rho (up, down):  2.314E-02 0.000E+00

     total cpu time spent up to now is      442.2 secs

     total energy              =     -84.62875648 Ry
     estimated scf accuracy    <       0.00000100 Ry

     iteration # 13     ecut=    60.00 Ry     beta= 0.70
     Davidson diagonalization with overlap
     ethr =  8.36E-09,  avg # of iterations =  3.0

     negative rho (up, down):  2.291E-02 0.000E+00

     total cpu time spent up to now is      465.3 secs

     End of self-consistent calculation

          k = 0.0000 0.0000 0.0000 (234963 PWs)   bands (ev):

   -32.4772 -20.4687 -13.4704 -12.8759 -12.8759  -6.4473  -6.4473  -0.4879
    -0.1240   0.0183

     the Fermi energy is    -6.4473 ev

!    total energy              =     -84.62859996 Ry

     total all-electron energy =      -302.322390 Ry
     estimated scf accuracy    <       0.00000040 Ry
     smearing contrib. (-TS)   =      -0.00564190 Ry
     internal energy E=F+TS    =     -84.62295807 Ry

     The total energy is F=E-TS. E is the sum of the following terms:
     one-electron contribution =    -144.17675336 Ry
     hartree contribution      =      74.40396159 Ry
     xc contribution           =     -15.02747031 Ry
     ewald contribution        =      20.47654026 Ry
     one-center paw contrib.   =     -20.29923625 Ry

     convergence has been achieved in  13 iterations

     negative rho (up, down):  2.291E-02 0.000E+00

     Forces acting on atoms (cartesian axes, Ry/au):

     atom    1 type  1   force =     0.00082249    0.00047194   -0.00016092
     atom    2 type  1   force =    -0.00082249   -0.00047194    0.00016092

     Total force =     0.001360     Total SCF correction =     0.000039

     negative rho (up, down):  2.291E-02 0.000E+00

     negative rho (up, down):  2.291E-02 0.000E+00

     negative rho (up, down):  2.291E-02 0.000E+00

     negative rho (up, down):  2.291E-02 0.000E+00

     negative rho (up, down):  2.291E-02 0.000E+00

     negative rho (up, down):  2.291E-02 0.000E+00

     negative rho (up, down):  2.291E-02 0.000E+00

     negative rho (up, down):  2.291E-02 0.000E+00

     negative rho (up, down):  2.291E-02 0.000E+00

     negative rho (up, down):  2.291E-02 0.000E+00

     negative rho (up, down):  2.291E-02 0.000E+00

     negative rho (up, down):  2.291E-02 0.000E+00

     negative rho (up, down):  2.291E-02 0.000E+00

     negative rho (up, down):  2.291E-02 0.000E+00

     negative rho (up, down):  2.291E-02 0.000E+00

     negative rho (up, down):  2.291E-02 0.000E+00

     negative rho (up, down):  2.291E-02 0.000E+00

     negative rho (up, down):  2.291E-02 0.000E+00

     negative rho (up, down):  2.291E-02 0.000E+00

     negative rho (up, down):  2.291E-02 0.000E+00

     negative rho (up, down):  2.291E-02 0.000E+00

     negative rho (up, down):  2.291E-02 0.000E+00

     negative rho (up, down):  2.291E-02 0.000E+00

     negative rho (up, down):  2.291E-02 0.000E+00

     negative rho (up, down):  2.291E-02 0.000E+00

     negative rho (up, down):  2.291E-02 0.000E+00

     negative rho (up, down):  2.291E-02 0.000E+00

     negative rho (up, down):  2.291E-02 0.000E+00

     negative rho (up, down):  2.291E-02 0.000E+00

     negative rho (up, down):  2.291E-02 0.000E+00

     negative rho (up, down):  2.291E-02 0.000E+00

     negative rho (up, down):  2.291E-02 0.000E+00

     negative rho (up, down):  2.291E-02 0.000E+00

     negative rho (up, down):  2.291E-02 0.000E+00
 BEEFens 2000 ensemble energies
             -0.109168188927361E+01
             -0.456458171517853E-01
             -0.242685445407231E+00
              0.770312514423422E+00
             -0.370656655499598E+00
             -0.294928381192122E+00
             -0.780051090700674E+00
             -0.166734456719352E+01
             -0.678328623770207E+00
             -0.725625375697890E+00
             -0.620492519704261E+00
              0.709119356136658E-01
              0.458474998226102E-01
             -0.185439505208160E-01
              0.669063934755827E-01
              0.814809856692955E+00
             -0.373090294672978E+00
             -0.248975419252325E+00
              0.371843533271264E+00
             -0.193675825661655E+01
              0.979076219014877E+00
             -0.368989803872438E+00
             -0.108091052842213E+00
             -0.176791539660879E+00
             -0.994242210718710E-02
             -0.128426839973773E+00
              0.154986578342319E+01
             -0.327862405805863E+00
             -0.161765963957777E+00
             -0.948030846417118E+00
              0.128523423208494E+01
             -0.160788917468399E+00
             -0.720056435762224E+00
              0.368135279460438E+00
             -0.548575494342156E-01
              0.430236858157750E+00
             -0.269355808666383E-02
              0.512835197145822E-01
              0.563653151986355E+00
             -0.178921022611826E+01
              0.952642466539309E+00
              0.198815069001868E+00
             -0.152237576292480E+00
             -0.558698362955195E+00
              0.203031396173896E+00
             -0.280307769094843E+00
              0.843328806634867E+00
              0.633998055926924E+00
             -0.395311215469706E+00
             -0.550415780204471E+00
             -0.511261290710502E+00
             -0.625573059673538E+00
              0.305009424207562E+00
             -0.918893729801752E+00
              0.259687252810068E+00
              0.105785059453596E+01
              0.124632589271724E+01
              0.575907515365712E+00
              0.316266323232548E+00
              0.518435612354031E+00
              0.156798649835449E+01
              0.351485634660788E+00
             -0.970612200437954E+00
             -0.198446454936279E+00
             -0.487244915844984E+00
              0.109668366468912E+01
             -0.132309557157265E+01
             -0.104132637085283E+01
             -0.520033025856886E+00
             -0.241876856316942E+00
             -0.747980949075126E+00
              0.477817825657136E+00
              0.220865680335944E+00
              0.257958075481232E+00
             -0.657816278597202E+00
             -0.618060854569726E+00
             -0.987370747826563E+00
              0.606112464247547E+00
             -0.569419450141855E+00
              0.495729707991976E+00
             -0.110113709950365E+00
             -0.521017092590858E+00
             -0.958666216081350E+00
             -0.278269798335263E+00
             -0.274887344300833E+00
             -0.292973248829504E+00
              0.673829178539768E+00
              0.127974226819960E+01
             -0.772584142244692E+00
             -0.140948259851400E+01
             -0.332038811655468E+00
              0.193758950366093E+01
             -0.955246508086727E+00
              0.546443134969639E+00
             -0.186916415206591E+00
             -0.108626859759322E+01
              0.488979870994894E+00
              0.592058071487880E+00
             -0.249107346477471E+00
              0.528482914394241E+00
             -0.466460284197904E+00
             -0.992523530381762E+00
              0.167848346115368E+01
              0.796387307149823E+00
              0.437245549816957E+00
              0.229551416186276E+00
              0.364148868372960E+00
              0.143725985422667E+01
             -0.460666997899093E+00
              0.523362830685346E-01
             -0.244253967262642E+01
              0.347954255240118E+00
             -0.117829014154563E+01
              0.220348534558417E+00
              0.370692894058805E+00
             -0.615656213254796E+00
             -0.902511693934017E+00
              0.799257422617750E-01
             -0.519151476786548E+00
              0.718457331671397E+00
             -0.799028759054066E+00
             -0.101158695500931E+00
             -0.665671155044778E+00
             -0.642291332033480E-01
              0.263130995354488E-01
              0.327235634287234E+00
             -0.145344945964965E-02
             -0.128900930855943E+00
              0.110725200254878E+01
              0.159441239622300E+01
              0.842473626326086E+00
              0.123747097358520E+01
             -0.242468438647239E+00
              0.178189914112318E+00
              0.921828127284583E+00
             -0.630618406824057E-02
             -0.131906984925676E+01
             -0.717974030851761E+00
             -0.848825324138407E+00
             -0.514553345482888E+00
              0.445291397438830E+00
             -0.210725409839013E+01
             -0.227063842405611E+00
              0.786210256950838E+00
             -0.706709281351923E+00
             -0.545535855700271E+00
              0.947849482485855E+00
              0.849090563741824E+00
             -0.510003440230361E+00
              0.460521794456185E+00
             -0.420446448438693E+00
              0.654704818527924E+00
              0.142298475190817E+00
              0.239595143280228E+00
             -0.146379573553877E+01
             -0.854720910857315E+00
             -0.149745863366963E+00
             -0.209565725507183E-01
             -0.720287865048581E+00
              0.190145449395191E+01
             -0.251116128750624E+00
             -0.497813757886965E+00
              0.700299198191935E+00
             -0.808632577146349E+00
             -0.620827560909874E+00
              0.551938863653037E+00
              0.188835899122272E+00
              0.179508292552807E+00
              0.231155433235437E+00
             -0.184942198314245E+00
              0.228752575825820E+00
              0.103440310097080E+01
             -0.504545831793354E+00
              0.365653348731236E+00
              0.155389378440458E+01
              0.538095884165812E+00
             -0.899346408680923E-01
             -0.330675880921553E+00
              0.268916029321651E+01
             -0.383266902772695E+00
              0.657961657793365E+00
              0.483521598396830E+00
              0.545771842839784E+00
              0.162336981232630E+01
              0.823938562684710E+00
             -0.963712977143304E-01
              0.402749469392145E+00
              0.872265091857992E+00
              0.676787956356064E+00
             -0.103354267857174E+01
              0.163711617625484E+01
             -0.148908305218843E+01
             -0.242612437560535E+00
              0.999762874678761E+00
              0.212115601139191E+00
              0.893758701581522E-01
              0.526737064544751E+00
              0.312633782267072E+00
              0.582123828543990E+00
             -0.109774432568145E+01
              0.746849044294517E-01
             -0.418180315863388E+00
             -0.136144642843309E+00
             -0.376910107485031E-01
             -0.185959173673617E+00
             -0.103285030298405E+00
              0.145206406899735E+01
             -0.105181343334688E+00
             -0.512605896723392E+00
             -0.382536232901255E-01
              0.231720426306771E+00
             -0.109221552643722E+01
             -0.870933584960869E+00
             -0.603442582529999E+00
             -0.108569194391980E+01
             -0.319471879405731E+00
             -0.705623507331763E+00
              0.333961992873853E+00
              0.596315104286593E-02
             -0.210509462429974E+00
             -0.147602811967407E+00
              0.997659700107891E-01
             -0.320499678749995E+00
              0.112375490809745E+01
             -0.148004026485620E+01
             -0.230598616788823E+00
             -0.268499903862381E+00
              0.287713927369994E+00
              0.323636314899827E+00
             -0.875813695117415E+00
             -0.244929275785063E+00
              0.767647401116704E+00
             -0.376205223255902E+00
              0.225413650478305E+00
              0.625646285631571E+00
             -0.141157746642238E-01
              0.201508149192985E+01
             -0.265304512478815E+00
             -0.617700416184743E+00
              0.383684610885160E-01
             -0.459689604014800E+00
              0.932448453548448E+00
             -0.762472242017389E+00
              0.212746264630963E+00
              0.945596914292209E+00
             -0.240536238323326E+00
              0.205302843082333E+01
              0.221779952184752E+01
             -0.122018124632630E+01
              0.988972356883540E+00
              0.355896798632198E+00
             -0.954607227888688E+00
              0.337132260398674E+00
              0.678566336590607E+00
              0.760342521067277E+00
              0.908203028523684E-01
              0.262557615530493E+00
              0.126127409594784E+01
             -0.395561160714143E+00
              0.181081210675544E+00
              0.123390091462222E+01
             -0.649368281112281E+00
             -0.355748904364399E+00
              0.980967120169058E+00
              0.523407481811601E+00
              0.135942753531383E+01
              0.539233758087790E+00
              0.185806342250650E+00
              0.440497549373317E+00
              0.720070898829725E+00
             -0.844834095923786E+00
              0.882189659682346E-01
              0.383070125769666E+00
              0.174926639612798E+00
              0.398752091407388E+00
             -0.105067242990939E+01
              0.584833324811090E+00
             -0.766716357199091E+00
             -0.527408806497576E+00
              0.290589403710985E+00
             -0.198048126003409E+00
              0.994318811316764E+00
             -0.337398710234367E+00
              0.488509352265464E+00
              0.533176912079607E+00
              0.136162908424932E+01
              0.930649790268152E+00
              0.877939637024568E+00
             -0.133258267688830E+00
             -0.155394478296301E+00
             -0.520042024825258E+00
              0.138321373122718E+01
              0.143240451730385E+01
              0.661066440045845E+00
             -0.455234371560847E+00
              0.870002467783365E+00
             -0.736916409141086E-01
              0.350294981617073E+00
              0.117277579298424E+01
             -0.339377547949544E-01
             -0.179913502385721E+00
             -0.414836170486579E+00
             -0.989836366521843E+00
              0.166903481776054E+01
              0.817107130202876E+00
             -0.107162123520408E+01
             -0.334831015853546E+00
              0.461876791966480E+00
             -0.204309065087941E+00
              0.112154874356864E+01
              0.270726145676271E+00
              0.140880958480452E+01
              0.484654221134016E+00
             -0.457704586058636E+00
              0.364147099876500E+00
             -0.112404963936013E+00
             -0.494667437442720E+00
              0.298998480923928E+00
              0.319965839651827E+00
              0.153603862131756E+01
              0.134396150018753E+01
              0.964202476870726E+00
              0.121742106937101E+01
              0.108155375822323E+00
             -0.456940148435848E+00
              0.234238027322543E+00
             -0.600617770185137E+00
             -0.936942065985246E+00
             -0.101262574599647E+01
             -0.532098342025282E+00
             -0.189451171531165E+01
             -0.595119977734981E+00
             -0.149206859769287E+01
              0.335647446293684E+00
             -0.798697941617014E+00
              0.823550057198943E+00
             -0.166862346614562E+01
             -0.519102536081546E+00
              0.770743096344187E+00
              0.386275779716583E+00
             -0.152973231571174E+01
              0.993693463779801E+00
             -0.475401211261913E+00
              0.955622306455870E+00
             -0.517523482695158E+00
             -0.136127304311769E+01
              0.304438605974736E+00
             -0.113623286291637E+01
             -0.145527880045858E+00
             -0.361782479803008E-03
              0.754201302591798E+00
              0.218218880073689E+01
             -0.774280116203203E+00
             -0.654666137414210E+00
             -0.830481560190268E-01
             -0.178204850204217E+00
             -0.139771135375992E+01
             -0.100639577475094E+01
              0.896243370592467E+00
             -0.367266995748540E+00
              0.334172707206593E+00
             -0.864738606716648E+00
             -0.250937124980829E+00
             -0.731496415569160E+00
              0.861522142201960E+00
              0.275993977328183E+00
             -0.417941265317868E+00
             -0.266572824395469E+00
              0.205246587035007E+00
             -0.149637228181030E+00
              0.722754766515823E+00
             -0.468556618215672E+00
              0.120517207028444E+00
              0.566498031361682E+00
              0.267112295387644E+00
             -0.358718383623673E+00
              0.271324724222039E+01
              0.981917532734951E+00
              0.141420020004917E+00
              0.139527202363640E+00
             -0.105138984175020E+01
              0.557756455623259E+00
             -0.132859814821449E+01
             -0.551690186864083E+00
             -0.101984052670705E+01
             -0.308891768359853E+00
              0.995257798250627E+00
             -0.998903103229843E+00
              0.395875241209515E+00
             -0.512342390783047E-01
              0.434423483879982E-01
             -0.590421702179725E+00
             -0.736974098102790E+00
             -0.595999793786355E-01
             -0.668709512735206E+00
             -0.413418633776248E+00
             -0.690097951718708E+00
             -0.118720052935667E+00
             -0.568906440389330E+00
             -0.866889937261536E+00
              0.410245455359132E+00
             -0.268537315591128E+00
              0.378649366467093E+00
              0.168584400658827E+00
             -0.129086249738312E+01
             -0.918767396134486E+00
             -0.790780425454750E+00
              0.603815655468573E+00
             -0.681123549044500E-01
             -0.110725473721522E+01
              0.973404391258013E+00
             -0.735907317472680E+00
              0.974429154522708E+00
             -0.515682683669690E+00
             -0.860774239125713E+00
              0.478832906812194E+00
             -0.125165763635827E+01
             -0.597368088940848E+00
              0.107158459654450E+01
              0.344879927461392E+00
             -0.689450296392572E+00
              0.947927722897018E+00
             -0.280064982969131E+00
             -0.621148997901845E+00
             -0.538922099677975E+00
             -0.898461987692309E+00
              0.409217214894177E+00
             -0.152649329799754E+01
             -0.138970922349491E+01
             -0.117293351423539E+00
             -0.500734498983780E+00
             -0.102364793077815E+01
              0.131268144053500E+01
              0.236427610542886E+01
             -0.456417075195131E+00
             -0.410684003970410E-01
             -0.108891070579548E+01
              0.114048250101441E+01
              0.362839093648154E+00
             -0.319916749892604E+00
             -0.651270151103681E+00
              0.259850178803095E+00
             -0.106348972945119E+01
             -0.220402212820856E+00
             -0.154656143552616E+01
              0.580734039187774E+00
              0.241337049308904E+00
             -0.686333167426429E-01
             -0.148539712451088E+00
             -0.660291704600445E+00
             -0.189715670733559E+00
              0.232138970801862E+01
             -0.283471604303449E+00
             -0.803308141930984E+00
             -0.118422965876360E+01
              0.226581536050285E+00
             -0.628625657377286E+00
              0.139207192240982E+00
              0.558159977009914E+00
              0.840005010801823E-01
              0.587270302931353E+00
              0.279945498873366E+00
              0.103392700365612E+01
              0.484809230941707E+00
             -0.604437799498458E+00
              0.833258744467179E+00
              0.614049173475050E+00
              0.222409238998429E+00
              0.685579227714545E+00
             -0.476580169353990E+00
              0.126202916075183E+01
              0.392383894458174E+00
             -0.580582610476935E+00
             -0.103896017895370E+00
             -0.284707464700282E+00
              0.321198230925582E+00
             -0.481703024875626E+00
             -0.134082601706351E+00
             -0.210440725314704E+00
              0.142048035081430E+01
              0.991900980539229E+00
             -0.118964644388689E+01
             -0.102070456668734E+00
             -0.919089381787063E+00
             -0.265490722436660E+00
             -0.380108875098287E+00
              0.169449340984714E+00
             -0.678878216032084E-01
             -0.470353101979812E+00
              0.238280990605372E+00
             -0.156754400690772E+00
             -0.168221264918061E+00
              0.151918749839168E+01
              0.295160623217795E+00
             -0.140697899684672E+01
             -0.714161202233301E+00
              0.161843420714273E+01
              0.414148071391734E+00
             -0.146352839424411E+00
              0.190004439748453E+01
             -0.344622533491155E+00
             -0.152042982999934E+00
             -0.170519311796507E+00
              0.259485636877692E+00
              0.525452156695731E+00
              0.596799134678208E-01
              0.499752880266580E+00
             -0.234747556414532E+00
             -0.621970267869330E+00
             -0.678458564197058E+00
             -0.857133157670058E+00
              0.747289339319388E+00
              0.259628397737737E+00
              0.660293620190967E+00
              0.272870588217642E+00
              0.154915619703079E+01
              0.329796090558512E+00
             -0.134844596976019E+01
             -0.576108663806960E+00
              0.116386559908142E+00
             -0.497771570955345E+00
              0.109341885633187E+01
             -0.267399348343485E+00
              0.309132596334336E+00
              0.926906326977777E+00
             -0.137698277910459E+01
              0.258896915996152E+01
              0.331666796173026E+00
              0.420050967352903E+00
              0.639524968779370E+00
              0.963454698513333E-01
             -0.553124073286213E-01
              0.597481506915231E+00
             -0.593892805599822E+00
              0.145987300872451E+01
              0.126974383513088E+01
             -0.671319508083490E+00
              0.298844074094559E+00
              0.124872666611663E+01
             -0.391969054759494E+00
              0.318278969973221E+00
              0.651576215549576E+00
              0.758238402570485E+00
             -0.131540760080573E+01
             -0.149054226536126E+00
             -0.533140517436182E+00
             -0.109642271635449E+00
             -0.100704109478148E+00
              0.375728676941325E-01
             -0.289244497361755E+00
             -0.491073120766430E+00
              0.211832791462766E+00
              0.148332757705494E+00
              0.931574873544838E+00
             -0.769125103668319E+00
              0.710917523730771E+00
              0.854775889467426E+00
             -0.244927829997619E+00
              0.138811770974901E+01
             -0.117482076933960E+01
             -0.180900533218281E+01
             -0.101410068572967E+00
             -0.111016457859616E+00
              0.312055922794183E-01
              0.132960426923247E+01
             -0.766222190557455E-01
              0.716336144340431E+00
              0.961150358461813E+00
              0.684881357423022E+00
             -0.917926991766702E-01
              0.109630454572313E+01
             -0.285953869833338E+00
             -0.636388246931682E+00
             -0.725186611302445E+00
              0.129977843050035E+00
              0.680096527605306E+00
             -0.827075096420020E-01
              0.648125485308919E+00
             -0.638357177199245E-02
              0.102509884209135E+01
              0.337425992576637E+00
              0.131449654884147E+00
             -0.369299501360150E-01
              0.543279403859138E+00
              0.700446017150532E+00
              0.313403912627202E+00
             -0.474844528274136E-01
             -0.929852233684942E+00
              0.510355407216927E+00
              0.354392379776577E+00
              0.633434855642944E+00
              0.539885267927315E+00
              0.619180868638552E+00
             -0.141457146351559E+00
              0.524875377018549E+00
             -0.486649580624483E+00
             -0.383977382264522E-01
             -0.950831879415898E+00
             -0.602752195541012E+00
              0.744633290266932E+00
             -0.156295102951642E+01
              0.468261860267943E+00
              0.262157187115191E+00
              0.148181943909907E+01
             -0.350998878415178E+00
              0.548596344433033E+00
             -0.212076257073948E+00
             -0.845205918755324E+00
             -0.123026119514605E+01
             -0.199311134162679E+00
             -0.157127282532913E+01
              0.220301478519523E+00
             -0.381792421527294E+00
              0.545657381871125E+00
              0.374079641490926E+00
             -0.460464440990223E+00
             -0.476261314764214E+00
              0.740585470101517E+00
             -0.966384777686000E+00
             -0.216216579383305E+00
             -0.299262314525467E+00
              0.421168845029913E+00
             -0.170460156560930E-01
              0.793755998851169E-01
             -0.305959453670235E+00
              0.951703109800341E+00
             -0.917322741319381E+00
              0.152108760125504E+00
              0.103222352437133E+01
             -0.597824838697424E+00
              0.454337783489631E-01
             -0.341894394291984E-01
             -0.119063054812386E+01
             -0.768302383795104E+00
             -0.835502910087660E-01
              0.505968807364916E+00
              0.562594533703949E+00
              0.846700934563325E-01
             -0.169147315566050E+00
              0.337783321202712E+00
             -0.756430031070833E+00
             -0.407698896509157E-01
             -0.910470826392944E+00
             -0.452337491372193E+00
              0.850245316268580E+00
             -0.532232235443006E+00
              0.116486960224932E+01
             -0.368148494142084E+00
              0.620888443798621E+00
              0.445555140002799E+00
             -0.104861831204005E+01
             -0.491190843699940E+00
              0.142730495809485E+00
             -0.672318726155319E+00
             -0.706332490021431E+00
             -0.150733834165631E+01
             -0.988312286259716E+00
             -0.877233646860052E+00
             -0.776588111913291E+00
              0.223679984205880E-01
              0.351071069138239E+00
              0.110521661026620E+00
              0.407675677229225E+00
             -0.101969354295038E+01
              0.215833291798910E+00
              0.418140313308583E+00
             -0.119876881051498E+01
             -0.104573463234365E+01
             -0.668516153201805E+00
             -0.488254791387674E+00
              0.295610152952947E+00
             -0.175516061929475E-01
             -0.777756962318154E+00
              0.566296051326826E+00
             -0.362888472161523E+00
              0.914590329562361E+00
             -0.152366920952338E+01
              0.104959055241123E+01
             -0.110337075202660E+00
             -0.737920318561654E+00
             -0.493462835188977E+00
             -0.561622083050906E-02
              0.806840081345835E+00
             -0.124353867852580E+01
             -0.235895864354287E+00
             -0.300640241035556E+00
              0.779236474118986E+00
              0.139970170653024E+01
             -0.170975204059099E+01
              0.162108506026837E+01
              0.742854677209345E+00
             -0.132435095107422E+01
             -0.591320965275294E+00
              0.134732208588619E+01
              0.101857297328868E+01
             -0.333643814887795E+00
             -0.114692645499545E+00
              0.270480035120467E+00
              0.129369846420247E+01
             -0.993193702263930E+00
              0.271371584326507E+00
             -0.114273388230028E+00
              0.526092805493660E+00
             -0.124597033497424E+01
             -0.795231866844783E-01
             -0.532359938375577E+00
              0.833229755071765E+00
              0.703275008331230E+00
             -0.152196326075607E+01
             -0.842664382625891E+00
             -0.388037448456000E+00
             -0.692338784868181E+00
             -0.239803679430149E+00
             -0.381930327748215E+00
              0.786113255148379E+00
              0.771012453993861E+00
             -0.905739347711201E-01
             -0.745220606008713E+00
             -0.146456126808882E+01
              0.831633684763240E+00
             -0.845863162518469E+00
             -0.588339446768600E+00
              0.125221368734743E+00
             -0.604037422667188E+00
             -0.716818597633674E+00
             -0.503974327123777E+00
             -0.811124395774569E+00
             -0.436960790602414E+00
             -0.873422918920294E+00
              0.100387991793639E+01
              0.109447370329834E+01
             -0.129664521938238E+00
             -0.396886251156332E+00
              0.150238240786766E-01
              0.728380758785091E+00
             -0.152816276086348E+01
             -0.405196072372773E+00
              0.900291704297961E+00
              0.116731760584480E+01
             -0.250054429633056E+00
              0.208689339576729E+00
              0.905803813997031E+00
              0.269299126270762E+00
             -0.489649670440597E-01
             -0.681898793424205E+00
              0.299595287048570E+00
             -0.591640266070542E+00
             -0.243950275818227E+00
             -0.342150814696914E+00
             -0.283652793886069E+00
              0.362651865791098E+00
              0.138648033999798E+01
             -0.811826112469629E-01
              0.463197993907309E-01
             -0.159359079112326E+01
             -0.316520007882039E+00
             -0.649413698097321E+00
              0.599042546811042E-01
             -0.748862995868556E+00
              0.146606318213388E+01
              0.150603399677654E+01
              0.321731314002744E+00
             -0.334650281053301E+00
              0.269311451597102E+00
              0.424529097222606E+00
             -0.802090440813126E+00
             -0.125739786334606E+00
              0.270457564351105E+00
              0.236219126624188E+00
              0.909884039987355E+00
              0.739983927999745E+00
             -0.380592019525647E+00
              0.459385233876879E+00
             -0.168745515704285E+01
             -0.772653561022807E-01
              0.155175297877072E+01
              0.282386458979373E+00
             -0.499457351828170E-02
              0.499437897186326E+00
             -0.412194739886714E+00
              0.159589529542073E+01
             -0.288480560760459E+00
              0.142096101183327E+01
              0.650568637746351E+00
             -0.746794333685072E+00
              0.565370265262987E+00
             -0.505955181336851E+00
             -0.116957841079781E+01
             -0.125826962811015E+00
             -0.962338291471184E+00
             -0.935476080561275E+00
             -0.436283636339247E-01
              0.587862463632689E+00
             -0.165888620681260E+00
             -0.592682246214734E+00
              0.125627501142419E+00
             -0.119732967773633E+01
             -0.995327499412100E-01
             -0.150240501284369E+01
              0.975319319518583E+00
             -0.743954405843787E-01
             -0.853404358628557E+00
             -0.355542081502971E+00
              0.296315030775557E+00
             -0.596619913520812E+00
             -0.789340284672540E+00
              0.153235377825781E+01
             -0.447908620092762E+00
             -0.754718997926918E+00
              0.503614627594127E+00
             -0.284639349222329E+00
              0.913895025923648E+00
              0.180978787161834E-03
              0.978327074984708E-01
              0.182917183000500E+01
             -0.246181254419445E+00
             -0.648085152390760E+00
             -0.746959215867484E+00
             -0.949666702783100E+00
             -0.620866373137765E+00
              0.509705918706128E+00
              0.448607068387647E+00
              0.468983103711171E+00
              0.130797842263212E+01
              0.540000719420828E-01
              0.345314979442116E+00
             -0.109229134438569E+01
              0.180249875623879E-01
             -0.363682698386421E+00
             -0.477180775597020E+00
             -0.143175556459116E-01
              0.587207340107120E+00
              0.662567420704734E+00
             -0.222123702451065E-01
              0.168399016915576E+00
              0.513032482576456E+00
              0.663855509727671E+00
             -0.384894561281074E+00
             -0.184358069601506E+00
              0.269974149777381E-01
             -0.453330631657499E+00
             -0.130622866575539E+00
             -0.571735007765205E+00
              0.131851341348348E+01
              0.107192541711503E+01
             -0.263023916174257E+00
              0.237695108123456E+00
             -0.698262879674138E-01
             -0.460996560603306E+00
              0.615578811835467E+00
             -0.160172132951649E+00
              0.616822451223419E+00
             -0.879751477560440E+00
              0.310612329469365E+00
             -0.151176717754064E+00
             -0.954834759864349E+00
             -0.433200246192349E+00
              0.424506802288462E+00
             -0.165484204512032E+01
              0.671018005456096E+00
              0.834697055223613E+00
             -0.149845197711256E+00
             -0.104380071807483E+00
             -0.471077915545113E-01
              0.451072769471971E+00
             -0.574283095542274E+00
              0.574904508038852E+00
              0.543373504898134E+00
             -0.172661493208900E+01
             -0.600859557042140E+00
              0.411375879991044E+00
             -0.211287795869589E+00
              0.755198434800745E+00
             -0.106249965746934E+01
             -0.792902116250804E-01
             -0.700049572092523E+00
             -0.221936713989589E+01
              0.136620811490977E+01
             -0.106199527310085E+01
             -0.111115587029857E+01
              0.126274240061279E+00
              0.224997694212849E+01
              0.776021055251186E-01
             -0.483822696626271E+00
             -0.807660000428267E-02
             -0.976482413494197E-01
             -0.155462837322276E+01
             -0.102141670137467E+01
              0.146180072374679E+01
             -0.151868991405467E+00
             -0.661196273698998E+00
              0.903815654726802E+00
             -0.583904334725787E+00
              0.629093203782567E+00
              0.880830376423563E+00
             -0.100763766678939E+01
             -0.478084756144237E+00
             -0.563774657354575E+00
             -0.257419857979299E+00
             -0.367712053193543E+00
             -0.233258092688398E+00
              0.304770364782865E+00
             -0.595066493945335E+00
              0.506493077464212E+00
              0.100843559779189E+01
             -0.205933521565958E+00
             -0.316500365803258E+00
              0.240405271560348E+00
              0.962104752497138E+00
              0.916808017250907E+00
              0.885794976927459E-01
             -0.114814695063833E+00
             -0.138762293673654E+00
             -0.921010048216456E+00
              0.689443508001826E+00
             -0.453396952780588E+00
              0.349064240867408E+00
             -0.253700217505925E+00
              0.494676704397737E+00
              0.292991878201340E+00
             -0.142699797740532E+01
             -0.479130308206715E+00
             -0.136546662137511E+01
             -0.644829881378646E+00
              0.109376640708375E+00
             -0.316488894790711E+00
              0.572256750608602E+00
             -0.486884794506483E+00
              0.321549775053200E-01
              0.141351572456268E+00
              0.130274100627552E+01
              0.665642757388331E+00
             -0.512680825677909E+00
              0.260469265847618E-02
              0.242289788459364E+00
              0.648761461518202E+00
              0.172383478379690E-02
              0.950311248249078E+00
              0.499417168958746E+00
              0.156684831255766E+01
              0.834113058013077E-01
              0.115238827415005E+01
             -0.462062060011001E+00
             -0.696491378691405E+00
              0.111733275586015E+00
              0.147952010328375E+00
              0.466124353538800E+00
             -0.214143817188379E+00
             -0.236712947524426E+00
              0.396598624021452E+00
             -0.805224766914710E+00
             -0.969817370428937E+00
              0.135108583749767E+01
             -0.114968202649321E+00
             -0.719559133107142E+00
             -0.716195461770113E-01
             -0.254537910484562E+00
              0.657995818561827E+00
              0.629147082419172E+00
             -0.340227423471843E+00
             -0.292379232634405E-01
             -0.474277089119763E+00
             -0.603416052015481E+00
             -0.467059288371081E+00
             -0.169843224850142E+01
             -0.501037269552329E-01
             -0.117473558360554E+01
             -0.100311292692884E+01
             -0.712778991359742E+00
              0.337935530958237E+00
             -0.685431081329372E+00
              0.378025715787096E+00
             -0.106648806816042E+01
             -0.557970567021115E-03
             -0.730281006871862E+00
              0.985540886523126E-01
              0.147971907342743E+00
              0.546178267314261E+00
             -0.343788623797606E+00
             -0.328452069626886E+00
              0.505395663768383E+00
              0.105790243747588E+01
              0.554930756681834E+00
              0.168863022246537E+00
             -0.125128750700013E+01
             -0.237962703276828E+00
             -0.502516974332995E+00
             -0.109149972532895E+01
              0.760480999557752E+00
             -0.591634279664189E+00
             -0.113548156283675E+00
             -0.437258219319373E+00
             -0.176918552939338E+01
              0.954317248880500E+00
             -0.307236207939463E+00
              0.697455524082905E+00
             -0.128475907940832E+01
              0.113330425784128E+01
              0.822520100735460E-01
             -0.499381410770250E+00
              0.115669066210015E+00
             -0.400828364424411E+00
             -0.117818155671120E+01
              0.302855957319315E+00
              0.559112042442432E+00
              0.176607865219420E-01
             -0.600333362235986E+00
             -0.231236220290697E+00
              0.327138162608145E+00
              0.587282893930544E+00
              0.110696328730184E+01
              0.422704819441645E+00
             -0.401737013011907E+00
              0.161337484116554E+01
              0.443124497194524E+00
              0.746731189237792E+00
             -0.267502566064627E+00
              0.522393600512085E+00
              0.346048153429775E+00
             -0.108606564691855E+01
             -0.373553891330175E+00
             -0.682937487030546E+00
             -0.621689265487349E+00
             -0.169904318535149E+00
             -0.222454197400227E+00
             -0.711882032936830E+00
             -0.198263751137682E+01
             -0.485126909963805E+00
              0.284959421526670E+00
              0.105349551030388E+00
              0.192566595836719E+00
              0.782582505987230E+00
              0.269256062171594E+00
              0.549246445080846E+00
             -0.778040034820392E+00
              0.780308413852671E+00
             -0.762845051251128E+00
             -0.124336494832935E+01
              0.319813853534697E+00
             -0.684468834342106E+00
             -0.728023945911177E+00
             -0.278475908032629E+01
             -0.157022031648151E+00
              0.143673168040869E+01
              0.767214386356190E+00
             -0.182812897576856E+00
             -0.180759498603116E+00
              0.620489987070616E+00
              0.113437909522197E+01
             -0.692653730888038E+00
             -0.210002582117291E+00
             -0.593421013548419E+00
             -0.609252649019856E+00
             -0.562657095380012E+00
              0.257023971375162E+00
              0.126293351949599E+01
             -0.115927568496301E+01
             -0.935902629113510E+00
              0.366241293627318E-01
             -0.213969122436088E+00
             -0.319184173907325E+00
             -0.159888470727840E+01
              0.100676385251253E+01
              0.392338161848281E+00
              0.120924427827216E+00
              0.902199007200873E+00
             -0.538319196482257E+00
              0.578225167109786E+00
              0.499382903669552E+00
              0.884226693218908E-01
             -0.139400129812372E+00
              0.193606711364314E+00
             -0.261333080694299E+00
              0.847354975172888E+00
             -0.746766927067434E+00
              0.756926397934834E+00
              0.169338610836849E+00
              0.248767348727136E+00
              0.371090449715675E+00
             -0.142466566248066E+01
              0.133315233499616E+00
             -0.114729952560309E+01
             -0.865914374336607E+00
             -0.860787915844062E+00
             -0.856013313169302E+00
              0.332657139173431E-01
              0.277554979979286E+00
              0.851528805551393E+00
              0.152050482606500E+00
              0.245996904246293E+00
             -0.123838239319226E+01
             -0.494326466051650E+00
              0.569589887786955E+00
              0.427849461503316E-02
             -0.193973692018918E-01
             -0.156779552028285E+00
              0.643454086170430E+00
             -0.160387373508647E+01
              0.225612204849295E+00
              0.413156381540448E+00
              0.717891347232679E+00
              0.671280746471558E+00
             -0.100054475584415E+01
              0.217455207329923E+00
              0.965658187669094E-01
              0.124235443954288E+00
              0.339743409518833E-01
             -0.358397323445386E+00
             -0.677702277078611E+00
              0.288502802884889E+00
              0.104557935658702E+01
             -0.965210450204683E-01
              0.209614032308169E+00
              0.216907136549211E+00
             -0.500124105899570E+00
             -0.500219389042211E+00
             -0.209078685192640E+01
             -0.701627739234037E+00
             -0.946047494542749E+00
             -0.140867964547974E+00
             -0.115342995116782E+01
              0.133890895026998E+01
             -0.563106330572662E+00
             -0.939067625826493E+00
             -0.276738128888745E+01
              0.118221933743423E+01
              0.246495021181925E+00
              0.282093358518778E-01
             -0.106772901177115E+01
              0.982973015743678E-01
             -0.269096104156525E+00
             -0.558651926092420E+00
              0.138980002834556E+00
              0.555996338949992E+00
              0.116047853601287E+00
             -0.307343611563905E+00
              0.807851934787607E-03
              0.109599816910340E-01
              0.266017641516727E+00
             -0.114535226865549E+01
              0.124416566235509E+01
             -0.725451577020847E+00
             -0.455970105592093E+00
             -0.801693449298773E+00
             -0.179602393081692E+01
              0.113994665786117E+00
             -0.904321408619350E+00
             -0.381609435442769E+00
              0.568025952337518E+00
             -0.432455640445414E+00
             -0.109064715291096E+00
             -0.201938300682944E+00
             -0.435861492449604E+00
              0.342289299728938E-01
              0.907507832139451E+00
             -0.927228555302440E+00
              0.172664904496071E+01
             -0.375678721360925E+00
              0.602371109280883E+00
             -0.212744722314721E+00
              0.242538018983400E+00
             -0.216310856220174E+00
              0.804055064425754E+00
              0.112476336441362E+01
              0.317807896354726E+00
              0.899769825729035E+00
             -0.583597267009830E+00
             -0.781728320810444E-01
             -0.444858908143109E+00
              0.112456782626535E+01
              0.971109793470077E+00
              0.722448859815017E+00
             -0.249969183000673E+00
             -0.475104031515856E+00
              0.426720750850181E+00
             -0.466339498871062E+00
             -0.254643023465071E+00
             -0.122625758987386E+00
             -0.559616744152508E+00
              0.890559845888433E+00
             -0.148799536762509E+00
              0.644343426143914E+00
              0.303603413521553E+00
              0.295394540076512E+00
             -0.607624051688757E+00
              0.521246657855114E+00
             -0.257275057908343E+00
             -0.156836802681001E+00
             -0.299730977765575E-01
             -0.895477658410327E+00
              0.137829193206626E+01
             -0.503086740948678E+00
              0.979899644934523E-02
              0.389098837136704E+00
              0.341176922840663E+00
              0.130709238232091E+01
             -0.371878900200549E+00
              0.134038537229692E+01
              0.119151794293880E+01
             -0.168486975503052E+01
              0.150461341825858E+00
             -0.339667667225829E+00
              0.186143789995453E+00
              0.961731919591124E-01
              0.315159796048798E+00
              0.110562104667959E+01
              0.163540588940665E+01
             -0.133635282414404E+01
              0.135626506176074E+01
             -0.168974507166591E+01
             -0.140851743780924E+01
             -0.223947913575813E+00
              0.230382725440315E-01
              0.131872582278601E+01
              0.631884408710208E+00
             -0.295251403150123E+00
             -0.154722192017457E+01
              0.118249110203010E+01
             -0.764656769160746E+00
              0.766332633528322E-02
             -0.692922762276940E-01
              0.225460322230381E+01
             -0.442696184838595E+00
             -0.184226401099679E+01
              0.536027170479025E+00
             -0.282549815513216E+01
              0.226806911097935E+00
             -0.658179850267326E+00
             -0.297604012805909E+00
             -0.472990735652848E+00
             -0.102388737525051E+01
              0.674260169328491E+00
             -0.604663294274968E+00
             -0.197973103011030E+00
             -0.134369880549586E+01
             -0.947291647238453E-01
             -0.898663984554953E+00
             -0.132442988168189E+01
             -0.201491071302776E+01
              0.170462560695356E+00
             -0.579863707773415E+00
              0.470183211192374E-01
             -0.203679431714693E+00
             -0.143050371117704E+01
             -0.109927207685824E+01
             -0.980975301680774E+00
             -0.953854083114429E+00
              0.922577479632719E+00
              0.160692996514217E+00
             -0.835114569739243E+00
             -0.390146145919724E+00
             -0.449567328573568E+00
              0.678509564544262E+00
             -0.575692203967776E+00
             -0.158203159215239E+00
             -0.459278405748801E+00
             -0.689848323419695E+00
             -0.682461336236247E+00
              0.712503317079812E+00
             -0.245863527157372E+00
             -0.157116803419096E+01
              0.139097196206284E+01
              0.815991109329381E+00
              0.941262287970055E-01
             -0.135234930451955E+01
             -0.132635217620996E+01
              0.156794575759999E+00
              0.416705162343769E-01
             -0.570004038951362E+00
             -0.828330341241503E+00
              0.598162403453206E+00
             -0.113910927882586E+00
              0.465393437588693E+00
              0.835842205230392E+00
              0.632705910539243E+00
              0.488149211895958E+00
              0.401487136882071E+00
             -0.393655309115647E+00
             -0.232239929211922E+00
             -0.314719896708274E+00
             -0.636886676679120E+00
             -0.851917080284000E+00
             -0.110195144750995E+01
             -0.655127980702921E+00
             -0.192609824584852E+00
             -0.137424806353829E+01
             -0.209924069313757E+00
              0.555069066919853E+00
             -0.134290563583338E+01
              0.546224751844466E+00
              0.432548334668312E+00
             -0.122055512111057E+01
             -0.992729761993203E+00
             -0.350647365289382E+00
              0.283466037542201E+00
             -0.709547767545498E+00
              0.127653026092503E+01
              0.113164754005680E+01
             -0.133549303476585E+01
              0.823650883647606E+00
              0.636801985579267E+00
              0.167303930480684E+00
              0.375517423040706E+00
             -0.735176425361698E+00
             -0.260319675818574E+00
              0.773312680103100E-01
              0.333722632687915E+00
              0.761188001162053E+00
             -0.954336083723803E+00
             -0.134667601252566E+00
              0.306500423079804E+00
              0.340330937640880E-01
             -0.558636369286145E+00
              0.326906855015133E+00
             -0.468449345975096E+00
             -0.313399804535845E+00
              0.297479617500871E-01
             -0.107063305423963E+01
              0.123385382677721E-01
             -0.288694107528391E+00
             -0.242333969966928E+00
              0.150975960676480E+00
             -0.958365169670197E+00
              0.970069691013585E+00
             -0.414803964922587E+00
             -0.228873716092728E+01
             -0.150827762105376E+01
              0.640550563252935E+00
             -0.651552419923475E+00
             -0.359832172164852E+00
             -0.473738385303383E+00
             -0.300988279962872E+00
             -0.178670247808702E+01
             -0.107212801808325E+00
             -0.109510323334976E+01
             -0.540000447390741E+00
              0.425688946510076E+00
              0.132302166972646E+01
              0.363296726190900E-01
              0.251018998552559E-01
              0.103310724980599E+01
             -0.905553345489971E+00
              0.551549296346210E+00
              0.135748596606078E+00
             -0.835446781066141E+00
             -0.419524109207729E+00
              0.375579274046327E+00
              0.340180071868248E-01
              0.239818969075397E+00
              0.251235893468067E+00
             -0.405772772328381E+00
             -0.505727077450342E+00
             -0.873160511749521E+00
              0.846768663725979E+00
             -0.115874256818709E+01
             -0.850812261919065E+00
              0.246787016749139E+00
             -0.152238961151027E+01
              0.349588248020223E+00
              0.101306549422832E+01
             -0.157560997386311E+00
              0.245083539753097E+00
             -0.503541181439020E+00
             -0.365367812322331E+00
              0.176077999662928E+00
              0.635656968956790E+00
             -0.660107580984249E+00
              0.442819636486270E+00
             -0.235530589370815E+00
             -0.681318365361694E-02
              0.393529549098510E+00
              0.263407549866949E+00
             -0.160620527149694E+00
             -0.142854585362278E-01
              0.303662356816242E+00
              0.476247350733519E+00
             -0.123158462912651E+01
              0.315189739251025E-01
              0.955692309511711E+00
             -0.162750109520629E+01
              0.576823109330337E+00
             -0.203338838560248E+01
             -0.167752304494048E+00
             -0.258314241342080E+00
             -0.886892785819509E-01
             -0.175240580734922E+00
             -0.489627305947492E+00
             -0.108115796108542E+00
              0.280494580434981E+00
             -0.389940202538611E+00
              0.204876979719098E+00
              0.155004543116905E+01
             -0.105074888394771E+01
             -0.457733757028609E+00
              0.673802257060490E+00
              0.388945224050419E+00
              0.697684582409779E+00
              0.281135085533457E+00
              0.414034330890371E+00
             -0.270616021480026E+00
             -0.863555310190122E+00
             -0.769428297992492E+00
             -0.483208087935727E+00
              0.523667732663569E-01
             -0.728877795964461E+00
             -0.215924857605647E+00
              0.117867232199121E+00
              0.411233918248339E+00
             -0.132656963279691E+00
              0.100187192514004E+01
             -0.101555861655565E+01
             -0.629546809568158E-01
             -0.121784533034939E+00
              0.527628358704618E+00
             -0.770081207923259E+00
             -0.487793420510892E+00
              0.358079426957073E+00
              0.867736394667419E+00
              0.125362907107047E+01
              0.597974763132676E+00
              0.770040823401438E+00
             -0.468338775638946E+00
              0.109828313620895E+01
              0.111778155787686E+01
             -0.918178323550460E-01
              0.619084435117893E+00
              0.680437897470308E+00
             -0.374201818592343E+00
              0.145104260091093E+00
              0.113464981375948E+01
             -0.424687437255830E+00
             -0.185277802135989E+00
             -0.110523493746316E+01
              0.436271047133962E+00
             -0.196402745632608E+00
              0.344718841403049E+00
              0.910693333207089E-01
             -0.701517866205112E+00
              0.813875781987718E+00
              0.702811370478546E+00
             -0.486060932768909E+00
              0.288462277298912E+00
             -0.100333825303920E+01
             -0.937976212289704E+00
              0.424263845653362E+00
             -0.119753735956705E+01
             -0.560055524258220E+00
              0.940719624049251E-01
              0.147535663815219E+01
             -0.370569266630371E+00
             -0.181349185241596E+00
             -0.293927235442717E+00
              0.197640218430193E+01
              0.325947725360719E+00
             -0.721695431887173E+00
              0.119735273316350E+01
              0.108716249527919E+01
              0.565645648216964E+00
              0.135234341389400E+01
              0.143935423984831E+01
             -0.135577680053019E+00
             -0.528719450309804E+00
             -0.513706672781238E+00
              0.452681137964676E+00
              0.655773779204343E+00
             -0.105259749869203E+00
             -0.399930921772811E+00
             -0.102914822798804E+01
             -0.440826892539913E+00
             -0.805297239661616E+00
              0.550223988463803E+00
              0.280123842661972E+00
              0.103306543650423E+01
              0.162349505270412E+00
             -0.421840891525234E+00
             -0.144460383338770E+00
              0.708019364191306E+00
              0.204765842669858E+00
              0.993610019098282E+00
              0.996420301266271E+00
             -0.203305927711135E+00
             -0.133610079947025E+00
             -0.170148409386371E+01
              0.887153396503458E+00
             -0.624833788106045E-01
              0.935964020502495E+00
             -0.392524651942469E+00
             -0.110714906274864E+01
              0.328847178781268E+00
              0.123308770449353E+01
             -0.448103845283132E+00
              0.119393619921315E+01
             -0.126095070681421E+01
             -0.425724253752903E+00
             -0.143460647695388E+01
              0.355071627255875E+00
              0.151207393434201E+00
              0.805337021433017E-01
             -0.106420866116659E+01
              0.154876754162374E+01
              0.930451950677755E+00
              0.120723926381651E+00
             -0.837963157653890E+00
              0.364609458597686E+00
             -0.403212741862445E+00
             -0.207271671336319E+00
             -0.415321401242476E+00
              0.325896929123748E+00
             -0.217126789681071E+00
             -0.324055774983679E+00
              0.379322129305363E+00
              0.412863530166928E+00
             -0.153536273664652E+01
              0.337215656366126E+00
              0.114658535414515E+01
              0.737261165554350E+00
             -0.250898629184010E+00
              0.212462232431476E-01
             -0.642421530113032E+00
              0.998319749405255E+00
              0.226396251609587E+00
             -0.865864975223589E-01
             -0.961854712742731E-01
              0.190531307859523E+01
             -0.563446842530109E-01
              0.498400554647485E+00
              0.125799334365039E+01
              0.171380433530885E+01
              0.106116819796256E+01
              0.728793041078788E+00
             -0.106739899748149E+01
             -0.792497731880205E+00
              0.626493792827981E+00
              0.117432297962905E-01
              0.533707683140966E+00
              0.257165246773419E+00
              0.108608268542031E+01
             -0.137742769157588E+01
             -0.855707615316417E+00
             -0.164082805031867E+00
             -0.149937901847921E+01
              0.307746059947605E+00
              0.724030459832279E+00
              0.141169377961660E+00
             -0.373874336968223E+00
              0.387574131550807E+00
              0.241165510873356E+01
              0.509937181202744E+00
              0.292613946464511E+00
             -0.858695727328374E+00
             -0.108476406036245E+01
             -0.253377738788522E+00
              0.486585080344256E+00
             -0.100124122154275E+00
              0.392915711765642E+00
              0.599934098246893E+00
             -0.111633697510844E+01
              0.459040690868866E+00
              0.741443408689259E+00
              0.103211108059809E+01
             -0.155840078255352E+00
              0.371829014186664E-01
             -0.134708548271705E+00
             -0.821354772106734E+00
             -0.125077963630369E+01
              0.138339785932492E+01
             -0.156799224102685E+00
             -0.977669533755354E+00
              0.824987883395263E-01
             -0.490485488875918E+00
              0.152833366064233E+01
             -0.380259410513180E+00
             -0.632155313374240E+00
              0.593942352651801E+00
             -0.247896310095966E+00
              0.793212679373045E+00
             -0.511351844481238E-01
              0.168422016260569E+01
              0.863154877694942E+00
              0.103157241163748E+00
             -0.658576655489187E+00
              0.470229547486665E+00
             -0.952534021580231E+00
             -0.118551832477960E+00
              0.111253605072869E+01
             -0.446611091658728E+00
             -0.784804627966539E+00
             -0.374596828272205E+00
              0.917621957110891E+00
              0.237287363168867E+00
             -0.145272643206963E+01
              0.585604957019142E+00
              0.189735148858923E+00
              0.155783506713537E+00
             -0.854905826534845E+00
              0.130257740100945E+00
              0.615739226916173E+00
              0.868650026800027E+00
              0.109204956642465E+01
              0.559805752695609E+00
              0.132550355145856E+00
             -0.914518968106030E+00
             -0.751630166546879E+00
             -0.122026356377145E+01
             -0.180239085476423E+00
              0.584993312046167E+00
             -0.316327699360222E-01
              0.927268861584306E+00
             -0.549508635832733E+00
              0.310542627402395E+00
             -0.317447041329654E+00
             -0.466417232304806E+00
              0.101238087401828E+01
              0.111816535823037E+00
              0.105166220921925E+01
              0.907934557038814E-01
              0.389432002850854E+00
             -0.284522165060940E+00
              0.106566413445237E+01
             -0.222531038373630E+00
             -0.252643490397317E-01
             -0.136360457712107E+01
             -0.155985424056431E+00
              0.124524051119952E+01
              0.117818074383979E+01
              0.405194528076249E+00
             -0.247341827201217E+00
              0.434171458557864E-01
             -0.357922374316614E+00
             -0.214277190690659E+00
              0.153487375305519E+01
              0.795972029897190E-01
             -0.454135507106690E+00
             -0.190024647413401E+01
             -0.854162306776084E+00
             -0.650077715529504E+00
             -0.111686116322699E+01
             -0.101644156630655E+01
             -0.125580176723373E+01
             -0.780827886123934E+00
             -0.561712729589498E+00
             -0.809948860070391E+00
              0.781673953093543E+00
             -0.388810341466371E+00
             -0.164302137222981E+01
              0.736422183379402E+00
             -0.553700313949884E+00
             -0.139363634570316E+01
              0.175100455190918E+01
             -0.413992800272499E+00
              0.312082061988593E+00
              0.709218770194943E+00
              0.125859886319538E+00
              0.420857773197287E+00
              0.173649411173962E-01
              0.932497627109813E-02
             -0.209633440744987E+00
             -0.125083895448598E+01
              0.189223155831884E+00
             -0.217921075733936E+01
              0.117133841273513E+01
             -0.706510662855164E+00
             -0.274670028808841E+00
             -0.330867785563987E+00
              0.306873500415814E+00
             -0.317596566675525E+00
              0.525755870412725E+00
             -0.981865036790129E+00
              0.670897426729658E+00
              0.694797631073762E+00
              0.233710255278994E+00
              0.143090583499955E+00
              0.365414498617512E+00
              0.133775484227074E+00
              0.559907986222871E+00
             -0.115916359438209E+00
             -0.116201437115186E+01
              0.172555285088793E+00
             -0.541594126312488E+00
             -0.403787079639963E-01
              0.897779889871334E+00
             -0.142264816321129E+01
              0.122840115218681E-01
              0.407189846071168E-01
              0.155425440392430E+00
              0.554092294671712E+00
             -0.233680343207128E+00
              0.147346318109971E+01
              0.741315515165196E+00
             -0.286981132072149E+00
             -0.196963552759478E+00
              0.768665555691643E-01
              0.138776649304568E+01
             -0.904850186622973E+00
             -0.179510464009276E+01
              0.503163154229296E+00
             -0.136283354072246E+00
             -0.236107447401440E+00
              0.320462959516512E+00
              0.134945884138560E+01
              0.760863619989371E+00
             -0.314421276236132E+00
             -0.908327718144335E+00
             -0.172285647774473E+00
              0.493120304747275E+00
             -0.274400920144690E+00
             -0.131383624357492E+01
             -0.106968819480315E+00
             -0.164941423417121E+01
             -0.861185939816089E+00
              0.145284007826634E+01
             -0.889819837990060E+00
             -0.120806953285115E+01
             -0.938209871307525E+00
             -0.664627400141639E+00
              0.570918171140214E+00
              0.146369491741396E+01
             -0.113866259755500E+00
              0.471762503131068E+00
             -0.319080074948754E+00
             -0.117595974295042E+01
              0.892708550472745E+00
             -0.816874305433304E+00
              0.490396838871522E+00
              0.558776458442443E+00
             -0.227046697566458E+00
              0.713454844627688E+00
              0.716365691620432E+00
              0.198584578051722E+01
             -0.238941417446084E+00
             -0.879231131972506E+00
             -0.115605695889449E+01
             -0.291014408952359E+00
             -0.619570830241221E+00
              0.170985181349750E+01
             -0.786872076177612E+00
              0.165564406387513E+00
              0.906343986767197E-01
             -0.386142618989599E+00
             -0.143476908845996E+01
             -0.113790604380360E+00
              0.173797110086065E+01
              0.292939552943749E+00
              0.140195635971444E+00
             -0.948280291228564E+00
             -0.969879039085754E+00
             -0.237088332373784E+00
              0.810328659790386E+00
             -0.442739811266240E+00
              0.179974587724390E+01
             -0.757435141801651E+00
              0.314313975737673E+00
             -0.320296322717367E+00
             -0.110171219592010E+01
              0.956012545932881E-01
             -0.953846441390933E+00
             -0.129400297725816E+01
              0.145291208544445E+00
              0.269067740567333E-01
              0.854711189721914E+00
              0.431699696244433E+00
             -0.596154626704431E+00
              0.403627942616552E+00
             -0.146253895546038E+01
             -0.873859686663844E+00
              0.162625675609286E+01
              0.134751935687795E+00
             -0.166638446213403E+00
             -0.486854453145295E+00
             -0.847634143379672E-02
             -0.172601858968973E+00
              0.152816049738850E+01
              0.704987839562201E+00
             -0.210445017885608E+00
             -0.751105818266433E-01
             -0.698100886723327E+00
             -0.287203638908210E+00
             -0.113288591297646E+01
              0.881798495687600E+00
              0.114994282125335E+00
              0.180879376053777E+00
              0.280256763879083E+00
             -0.188790425744623E+00
             -0.362794632247880E+00
              0.417081420323268E-01
             -0.188364327385399E+01
             -0.233618224550842E+00
             -0.129195518959106E+00
             -0.122712146807042E+00
              0.926069724036157E+00
              0.108696082309207E+01
              0.292054007982967E+00
             -0.163674128496838E+01
              0.112875332124357E+01
             -0.417358840619626E+00
             -0.650506506747613E+00
             -0.152040356124047E+01
             -0.552009948157538E+00
              0.102764874129592E+01
              0.530740110850747E+00
              0.259207998650380E+00
              0.574279048077456E+00
             -0.974567289570754E+00
             -0.804324445101277E+00
              0.105487431703723E+01
              0.719281638018813E+00
              0.859530152224437E+00
              0.472276838221437E-01
              0.157728819546294E+00
              0.933965680154499E+00
              0.173520181764505E+01
             -0.383818360720357E+00
              0.659577573854275E+00
             -0.358139098522675E+00
             -0.756403051779412E+00
             -0.577935937313143E+00
             -0.530902414819799E+00
             -0.239516189374868E+00
             -0.861882715002853E+00
             -0.382689596269332E+00
             -0.230448973977457E+01
              0.561779507894224E+00
              0.461152101786544E+00
             -0.407013094814286E-01
             -0.665603124826138E+00
             -0.364028607007024E+00
             -0.943295217722762E+00
              0.149301550263529E+00
              0.140370855010446E+01
             -0.334829732872414E+00
             -0.318418686219295E+00
              0.325581205723148E+00
             -0.853705322595768E+00
              0.153405390925171E+01
              0.301111984594686E+00
              0.189303626493636E+00
              0.930140728593582E+00
             -0.343190596765446E-01
              0.101875515549387E+01
              0.314746225729115E+00
             -0.102766626732508E+00
              0.231621483334037E+00
             -0.109993408752459E+00
              0.123487088350279E+01
              0.130072106562197E+00
              0.319722217214123E+00
             -0.149926113304194E+00
              0.188883668911734E+00
             -0.164152334077208E+01
             -0.643248667368850E+00
             -0.831959418325926E+00
              0.925272657948696E+00
             -0.586502094279853E+00
             -0.104145099401894E+01
              0.102265771886819E+01
             -0.256660015918021E+00
              0.754820931616712E+00
             -0.158070173032402E+01
              0.389629589128125E+00
              0.102633843912899E+00
              0.858470346824589E-01
             -0.192474521144507E+00
             -0.103096671307497E+00
              0.871733430870367E+00
              0.488812103337422E-01
             -0.874595020016672E+00
             -0.348399886546858E+00
              0.385527962996479E+00
             -0.204118541141007E+01
             -0.158175110309515E+01
              0.292320713139480E-01
              0.238119415528214E+00
             -0.832442729558573E+00
             -0.237354497052831E-01
              0.186043933218269E+01
              0.570341598406502E+00
             -0.967848481123108E+00
              0.138652107434340E+00
             -0.174366031305220E+00
              0.209384815934694E+00
             -0.593289725486886E+00
              0.353802297396413E+00
              0.428670716264994E+00
             -0.145197943357657E+00
              0.195074621174083E+01
             -0.125603514390820E+00
             -0.556993220450085E+00
              0.467775756556319E+00
              0.756017068434666E+00
             -0.606223114213766E+00
             -0.264719548164694E-01
              0.170125192652062E+01
             -0.465202527906605E-01
              0.924242873701762E+00
              0.285749232001665E+00
             -0.159646070794730E+00
             -0.327531048914764E+00
              0.901890252332389E+00
             -0.101394989680118E+01
             -0.554639996489845E-01
             -0.326685614393774E+00
             -0.734906233949396E+00
              0.207061833024541E+00
              0.397906300514934E+00
              0.376900731416416E-01
             -0.365482708519682E-01
             -0.693658769605173E+00
              0.304594263802952E+00
             -0.427576400769398E-01
             -0.416057120795248E+00
             -0.377773022625397E+00
              0.361343695189141E+00
             -0.344155086056599E-01
             -0.665290046663669E+00
             -0.185842963100547E+01
              0.929171668356794E-01
              0.341360043537877E+00
             -0.804798562465505E+00
             -0.415468534109726E+00
              0.142820342159235E+01
              0.168983774654532E+00
              0.696662112985655E+00
              0.145035273371894E+00
              0.659533952071991E+00
              0.481314887233726E-01
             -0.696378157780056E+00
             -0.112712571355873E+00
              0.118220762956183E+00
              0.500987216397475E+00
              0.137284617162055E+01
              0.865264782933310E+00
              0.358062198048179E-01
              0.191568246564550E+00
              0.105866601616409E+01
              0.472818703022216E+00
             -0.126932908601782E+01
             -0.487208931985795E+00
              0.240617325631797E+00
              0.166211602565088E+00
              0.446857095175984E+00
             -0.923381447338190E+00
              0.131337093390296E+00
              0.686484620347190E+00
              0.859793539128177E+00
             -0.755556625955153E+00
             -0.228359521338337E-01
             -0.374866904635995E-01
             -0.339970930717285E+00
             -0.503627430952651E+00
             -0.252515262626134E+00
             -0.127248967303387E+00
              0.176015141393299E+00
              0.728388114246062E+00
             -0.561364832000142E+00
              0.142178568511344E+01
              0.599244814251088E+00
              0.433605420538958E+00
              0.622789176974416E+00
              0.491859686009255E+00
              0.563573535187620E+00
              0.970724907751116E+00
             -0.820551475434457E+00
              0.110297709139270E+01
             -0.195798092221656E+01
              0.557368948905352E+00
             -0.185655915818293E+01
              0.142784394152928E+01
              0.134304747472405E+01
             -0.159352224621228E+00
             -0.851079099655825E+00
             -0.740772358709464E+00
             -0.989678831746007E+00
             -0.112379516800099E+01
              0.953453886719268E+00
              0.752852651868868E+00
              0.431992758240813E+00
              0.519975325084436E+00
              0.721747698938974E+00
             -0.705121000500204E+00
             -0.276907413332831E+00
              0.956770735269240E+00
             -0.203063857022094E+00
              0.867894828237485E+00
              0.131499893364874E+01
             -0.425943056353583E-01
             -0.130000149977137E+01
              0.421137904933158E-01
              0.384340909581967E-01
             -0.175493142746274E+00
              0.566708161050906E-01
             -0.115786430542011E+01
             -0.243494166839307E+00
              0.199639520335476E+00
              0.190841793754323E+00
              0.849744267899654E+00
             -0.699887854080642E+00
              0.101532470443342E+01
             -0.684992094177451E+00
              0.423403759583662E+00
              0.741309093506641E+00
 
 BEEF-vdW xc energy contributions
           1 :   -12.6433269104182     
           2 :    10.6904633814167     
           3 :   -7.91953208861062     
           4 :    5.32427086369437     
           5 :   -3.29393811967037     
           6 :    1.86536414672595     
           7 :  -0.935414262622341     
           8 :   0.370993828791610     
           9 :  -3.875258936509773E-002
          10 :  -0.167761774530662     
          11 :   0.299476356013640     
          12 :  -0.362394840531628     
          13 :   0.366019087203433     
          14 :  -0.344628566991243     
          15 :   0.320081064327191     
          16 :  -0.290298410373063     
          17 :   0.253796071909081     
          18 :  -0.211825258634015     
          19 :   0.166650619796343     
          20 :  -0.122832878418341     
          21 :   8.172711718405878E-002
          22 :  -4.578927558151236E-002
          23 :   1.617893926107605E-002
          24 :   8.479057077190433E-003
          25 :  -2.644418231322021E-002
          26 :   3.720203455813476E-002
          27 :  -4.219608552432597E-002
          28 :   4.062649252184514E-002
          29 :  -3.287613688169522E-002
          30 :   2.228606093994756E-002
          31 :   -1.49682355123708     
          32 :  -0.951474617063594     

     Writing output data file ./pwscf.save/
 
     init_run     :     58.53s CPU     60.56s WALL (       1 calls)
     electrons    :    383.32s CPU    404.78s WALL (       1 calls)
     forces       :     22.56s CPU     24.23s WALL (       1 calls)

     Called by init_run:
     wfcinit      :      0.98s CPU      1.03s WALL (       1 calls)
     potinit      :     51.98s CPU     53.56s WALL (       1 calls)
     hinit0       :      4.40s CPU      4.48s WALL (       1 calls)

     Called by electrons:
     c_bands      :     47.58s CPU     47.68s WALL (      14 calls)
     sum_band     :     24.94s CPU     28.09s WALL (      14 calls)
     v_of_rho     :    264.46s CPU    280.16s WALL (      14 calls)
     newd         :      9.40s CPU     12.33s WALL (      14 calls)
     PAW_pot      :      1.20s CPU      1.20s WALL (      14 calls)
     mix_rho      :     85.00s CPU     86.27s WALL (      14 calls)
     vdW_kernel   :     33.46s CPU     33.46s WALL (       1 calls)

     Called by c_bands:
     init_us_2    :      0.69s CPU      0.71s WALL (      29 calls)
     regterg      :     46.12s CPU     46.21s WALL (      14 calls)

     Called by *egterg:
     rdiaghg      :      0.01s CPU      0.01s WALL (      84 calls)
     h_psi        :     42.04s CPU     42.06s WALL (      86 calls)
     s_psi        :      0.56s CPU      0.56s WALL (      86 calls)
     g_psi        :      0.16s CPU      0.16s WALL (      71 calls)

     Called by h_psi:
     h_psi:calbec :      0.56s CPU      0.56s WALL (      86 calls)
     vloc_psi     :     40.65s CPU     40.65s WALL (      86 calls)
     add_vuspsi   :      0.58s CPU      0.58s WALL (      86 calls)

     General routines
     calbec       :      0.70s CPU      0.70s WALL (     104 calls)
     fft          :    200.89s CPU    200.92s WALL (    2756 calls)
     ffts         :     35.37s CPU     35.37s WALL (     498 calls)
     fftw         :     38.51s CPU     38.51s WALL (     538 calls)
 
     Parallel routines
 
     PWSCF        :  16m53.03s CPU  18m 3.13s WALL

 
   This run was terminated on:  14:48:23  21Dec2022            

=------------------------------------------------------------------------------=
   JOB DONE.
=------------------------------------------------------------------------------=
