
     Program PWSCF v.6.7MaX starts on 20Dec2022 at 16:50:30 

     This program is part of the open-source Quantum ESPRESSO suite
     for quantum simulation of materials; please cite
         "P. Giannozzi et al., J. Phys.:Condens. Matter 21 395502 (2009);
         "P. Giannozzi et al., J. Phys.:Condens. Matter 29 465901 (2017);
          URL http://www.quantum-espresso.org", 
     in publications or presentations arising from this work. More details at
     http://www.quantum-espresso.org/quote

     Parallel version (MPI), running on     1 processors

     MPI processes distributed on     1 nodes
     Reading input from och2oh-gas-ensemble.in
Warning: card &CELL ignored
Warning: card / ignored

     Current dimensions of program PWSCF are:
     Max number of different atomic species (ntypx) = 10
     Max number of k-points (npk) =  40000
     Max angular momentum in pseudopotentials (lmaxx) =  3
     file O.pbe-nl-kjpaw_psl.1.0.0.UPF: wavefunction(s)  2S 2P renormalized
     file C.pbe-n-kjpaw_psl.1.0.0.UPF: wavefunction(s)  2S 2P renormalized
     file H.pbe-kjpaw_psl.1.0.0.UPF: wavefunction(s)  1S renormalized

     **************************************************************************
     Initializing libbeef V0.1.2 with the BEEF-vdW functional.
     Citation: Wellendorff et al., PRB 85, 235149 (2012).
     **************************************************************************


     IMPORTANT: XC functional enforced from input :
     Exchange-correlation= BEEF-VDW
                           (   1   4  43  14   2   0   0)
     Any further DFT definition will be discarded
     Please, verify this is what you really want


     gamma-point specific algorithms are used

     Subspace diagonalization in iterative solution of the eigenvalue problem:
     a serial algorithm will be used

 
     G-vector sticks info
     --------------------
     sticks:   dense  smooth     PW     G-vecs:    dense   smooth      PW
     Sum       33085   33085   8281              4551255  4551255  568883
 


     bravais-lattice index     =            0
     lattice parameter (alat)  =      41.6490  a.u.
     unit-cell volume          =   72483.3433 (a.u.)^3
     number of atoms/cell      =            6
     number of atomic types    =            3
     number of electrons       =        19.00
     number of Kohn-Sham states=           14
     kinetic-energy cutoff     =      60.0000  Ry
     charge density cutoff     =     240.0000  Ry
     scf convergence threshold =      1.0E-06
     mixing beta               =       0.7000
     number of iterations used =            8  local-TF  mixing
     Exchange-correlation= BEEF-VDW
                           (   1   4  43  14   2   0   0)

     celldm(1)=  41.649043  celldm(2)=   0.000000  celldm(3)=   0.000000
     celldm(4)=   0.000000  celldm(5)=   0.000000  celldm(6)=   0.000000

     crystal axes: (cart. coord. in units of alat)
               a(1) = (   1.000000   0.000000   0.000000 )  
               a(2) = (   0.000000   0.998417   0.000000 )  
               a(3) = (   0.000000   0.000000   1.004873 )  

     reciprocal axes: (cart. coord. in units 2 pi/alat)
               b(1) = (  1.000000  0.000000  0.000000 )  
               b(2) = (  0.000000  1.001586  0.000000 )  
               b(3) = (  0.000000  0.000000  0.995150 )  


     PseudoPot. # 1 for O  read from file:
     /users/bkreitz1/quantum-espresso/potentials/O.pbe-nl-kjpaw_psl.1.0.0.UPF
     MD5 check sum: eef08af8b58d9ec80f8fdb78829eb7cf
     Pseudo is Projector augmented-wave + core cor, Zval =  6.0
     Generated using 'atomic' code by A. Dal Corso  v.6.7MaX
     Shape of augmentation charge: PSQ
     Using radial grid of 1095 points,  4 beta functions with: 
                l(1) =   0
                l(2) =   0
                l(3) =   1
                l(4) =   1
     Q(r) pseudized with 0 coefficients 


     PseudoPot. # 2 for C  read from file:
     /users/bkreitz1/quantum-espresso/potentials/C.pbe-n-kjpaw_psl.1.0.0.UPF
     MD5 check sum: a169b0ebad56f5ec0d79c4633f80bf22
     Pseudo is Projector augmented-wave + core cor, Zval =  4.0
     Generated using 'atomic' code by A. Dal Corso  v.6.7MaX
     Shape of augmentation charge: PSQ
     Using radial grid of 1073 points,  4 beta functions with: 
                l(1) =   0
                l(2) =   0
                l(3) =   1
                l(4) =   1
     Q(r) pseudized with 0 coefficients 


     PseudoPot. # 3 for H  read from file:
     /users/bkreitz1/quantum-espresso/potentials/H.pbe-kjpaw_psl.1.0.0.UPF
     MD5 check sum: ae98473e6dc62675f0d0baffdab24f65
     Pseudo is Projector augmented-wave, Zval =  1.0
     Generated using 'atomic' code by A. Dal Corso  v.6.7MaX
     Shape of augmentation charge: PSQ
     Using radial grid of  929 points,  2 beta functions with: 
                l(1) =   0
                l(2) =   0
     Q(r) pseudized with 0 coefficients 


     atomic species   valence    mass     pseudopotential
        O              6.00    15.99900     O ( 1.00)
        C              4.00    12.01100     C ( 1.00)
        H              1.00     1.00800     H ( 1.00)

     No symmetry found



   Cartesian axes

     site n.     atom                  positions (alat units)
         1           O   tau(   1) = (   0.5422410   0.5259468   0.4496689  )
         2           C   tau(   2) = (   0.5025346   0.5061271   0.4881598  )
         3           H   tau(   3) = (   0.4550526   0.5200942   0.4755067  )
         4           H   tau(   4) = (   0.4984522   0.4552108   0.4866031  )
         5           O   tau(   5) = (   0.5084642   0.5208073   0.5511333  )
         6           H   tau(   6) = (   0.5451819   0.5448992   0.5554029  )

     number of k points=     1  Gaussian smearing, width (Ry)=  0.0050
                       cart. coord. in units 2pi/alat
        k(    1) = (   0.0000000   0.0000000   0.0000000), wk =   2.0000000

     Dense  grid:  2275628 G-vectors     FFT dimensions: ( 216, 216, 216)

     Estimated max dynamical RAM per process >       3.64 GB

     Initial potential from superposition of free atoms

     starting charge   18.99993, renormalised to   19.00000

     negative rho (up, down):  2.158E-02 0.000E+00


     %%%%%%%%%%%%%%%%%%%%%%%%%%%%%%%%%%%%%%%%%%%%%%%%%%%%%%%%%%%%%%%%%%%%%%%%
     %                                                                      %
     % You are using vdW-DF, which was implemented by the Thonhauser group. %
     % Please cite the following two papers that made this development      %
     % possible and the two reviews that describe the various versions:     %
     %                                                                      %
     %   T. Thonhauser et al., PRL 115, 136402 (2015).                      %
     %   T. Thonhauser et al., PRB 76, 125112 (2007).                       %
     %   K. Berland et al., Rep. Prog. Phys. 78, 066501 (2015).             %
     %   D.C. Langreth et al., J. Phys.: Condens. Matter 21, 084203 (2009). %
     %                                                                      %
     %                                                                      %
     % If you are calculating the stress with vdW-DF, please also cite:     %
     %                                                                      %
     %   R. Sabatini et al., J. Phys.: Condens. Matter 24, 424209 (2012).   %
     %                                                                      %
     %%%%%%%%%%%%%%%%%%%%%%%%%%%%%%%%%%%%%%%%%%%%%%%%%%%%%%%%%%%%%%%%%%%%%%%%


     Starting wfcs are   15 randomized atomic wfcs
     Checking if some PAW data can be deallocated... 

     total cpu time spent up to now is       77.0 secs

     Self-consistent Calculation

     iteration #  1     ecut=    60.00 Ry     beta= 0.70
     Davidson diagonalization with overlap
     ethr =  1.00E-02,  avg # of iterations =  5.0

     negative rho (up, down):  1.739E-02 0.000E+00

     total cpu time spent up to now is      118.8 secs

     total energy              =    -107.42468151 Ry
     estimated scf accuracy    <       0.61778284 Ry

     iteration #  2     ecut=    60.00 Ry     beta= 0.70
     Davidson diagonalization with overlap
     ethr =  3.25E-03,  avg # of iterations =  2.0

     negative rho (up, down):  1.452E-02 0.000E+00

     total cpu time spent up to now is      158.2 secs

     total energy              =    -107.46559964 Ry
     estimated scf accuracy    <       0.10029701 Ry

     iteration #  3     ecut=    60.00 Ry     beta= 0.70
     Davidson diagonalization with overlap
     ethr =  5.28E-04,  avg # of iterations =  8.0

     negative rho (up, down):  1.369E-02 0.000E+00

     total cpu time spent up to now is      200.3 secs

     total energy              =    -107.46152222 Ry
     estimated scf accuracy    <       0.02780051 Ry

     iteration #  4     ecut=    60.00 Ry     beta= 0.70
     Davidson diagonalization with overlap
     ethr =  1.46E-04,  avg # of iterations = 10.0

     negative rho (up, down):  1.313E-02 0.000E+00

     total cpu time spent up to now is      243.3 secs

     total energy              =    -107.46123280 Ry
     estimated scf accuracy    <       0.00988061 Ry

     iteration #  5     ecut=    60.00 Ry     beta= 0.70
     Davidson diagonalization with overlap
     ethr =  5.20E-05,  avg # of iterations =  5.0

     negative rho (up, down):  3.065E-02 0.000E+00

     total cpu time spent up to now is      284.7 secs

     total energy              =    -107.46019721 Ry
     estimated scf accuracy    <       0.00599077 Ry

     iteration #  6     ecut=    60.00 Ry     beta= 0.70
     Davidson diagonalization with overlap
     ethr =  3.15E-05,  avg # of iterations =  6.0

     negative rho (up, down):  7.182E-02 0.000E+00

     total cpu time spent up to now is      327.6 secs

     total energy              =    -107.46109225 Ry
     estimated scf accuracy    <       0.00239875 Ry

     iteration #  7     ecut=    60.00 Ry     beta= 0.70
     Davidson diagonalization with overlap
     ethr =  1.26E-05,  avg # of iterations =  5.0

     negative rho (up, down):  8.031E-02 0.000E+00

     total cpu time spent up to now is      369.9 secs

     total energy              =    -107.46128222 Ry
     estimated scf accuracy    <       0.00093146 Ry

     iteration #  8     ecut=    60.00 Ry     beta= 0.70
     Davidson diagonalization with overlap
     ethr =  4.90E-06,  avg # of iterations =  7.0

     negative rho (up, down):  6.885E-02 0.000E+00

     total cpu time spent up to now is      412.5 secs

     total energy              =    -107.46077626 Ry
     estimated scf accuracy    <       0.00042988 Ry

     iteration #  9     ecut=    60.00 Ry     beta= 0.70
     Davidson diagonalization with overlap
     ethr =  2.26E-06,  avg # of iterations = 12.0

     negative rho (up, down):  6.140E-02 0.000E+00

     total cpu time spent up to now is      457.1 secs

     total energy              =    -107.46058974 Ry
     estimated scf accuracy    <       0.00018051 Ry

     iteration # 10     ecut=    60.00 Ry     beta= 0.70
     Davidson diagonalization with overlap
     c_bands:  1 eigenvalues not converged
     ethr =  9.50E-07,  avg # of iterations = 20.0

     negative rho (up, down):  4.308E-02 0.000E+00

     total cpu time spent up to now is      503.4 secs

     total energy              =    -107.46026361 Ry
     estimated scf accuracy    <       0.00009211 Ry

     iteration # 11     ecut=    60.00 Ry     beta= 0.70
     Davidson diagonalization with overlap
     ethr =  4.85E-07,  avg # of iterations = 18.0

     negative rho (up, down):  3.452E-02 0.000E+00

     total cpu time spent up to now is      549.3 secs

     total energy              =    -107.46022114 Ry
     estimated scf accuracy    <       0.00003250 Ry

     iteration # 12     ecut=    60.00 Ry     beta= 0.70
     Davidson diagonalization with overlap
     ethr =  1.71E-07,  avg # of iterations =  5.0

     negative rho (up, down):  3.219E-02 0.000E+00

     total cpu time spent up to now is      591.0 secs

     total energy              =    -107.46025456 Ry
     estimated scf accuracy    <       0.00002179 Ry

     iteration # 13     ecut=    60.00 Ry     beta= 0.70
     Davidson diagonalization with overlap
     ethr =  1.15E-07,  avg # of iterations =  5.0

     negative rho (up, down):  3.013E-02 0.000E+00

     total cpu time spent up to now is      630.9 secs

     total energy              =    -107.46025999 Ry
     estimated scf accuracy    <       0.00000702 Ry

     iteration # 14     ecut=    60.00 Ry     beta= 0.70
     Davidson diagonalization with overlap
     ethr =  3.69E-08,  avg # of iterations =  5.0

     negative rho (up, down):  2.820E-02 0.000E+00

     total cpu time spent up to now is      670.8 secs

     total energy              =    -107.46026193 Ry
     estimated scf accuracy    <       0.00000284 Ry

     iteration # 15     ecut=    60.00 Ry     beta= 0.70
     Davidson diagonalization with overlap
     ethr =  1.49E-08,  avg # of iterations =  2.0

     negative rho (up, down):  2.715E-02 0.000E+00

     total cpu time spent up to now is      700.1 secs

     End of self-consistent calculation

          k = 0.0000 0.0000 0.0000 (284442 PWs)   bands (ev):

   -27.4858 -25.4763 -17.2442 -13.0286 -12.7455 -11.8569  -9.9880  -8.1981
    -7.2305  -6.5520  -1.0479  -0.7393  -0.2721  -0.2616

     the Fermi energy is    -6.5520 ev

!    total energy              =    -107.46026708 Ry

     total all-electron energy =      -382.918141 Ry
     estimated scf accuracy    <       0.00000085 Ry
     smearing contrib. (-TS)   =      -0.00282095 Ry
     internal energy E=F+TS    =    -107.45744613 Ry

     The total energy is F=E-TS. E is the sum of the following terms:
     one-electron contribution =    -247.45770660 Ry
     hartree contribution      =     127.34755011 Ry
     xc contribution           =     -22.41273130 Ry
     ewald contribution        =      61.88800126 Ry
     one-center paw contrib.   =     -26.82255960 Ry

     convergence has been achieved in  15 iterations

     negative rho (up, down):  2.715E-02 0.000E+00

     Forces acting on atoms (cartesian axes, Ry/au):

     atom    1 type  1   force =    -0.00086343   -0.00070257    0.00004358
     atom    2 type  2   force =     0.00189655    0.00132954   -0.00121884
     atom    3 type  3   force =     0.00051754    0.00037506    0.00080168
     atom    4 type  3   force =     0.00030850    0.00016759    0.00045352
     atom    5 type  1   force =     0.00028897    0.00028861    0.00198200
     atom    6 type  3   force =    -0.00214813   -0.00145822   -0.00206195

     Total force =     0.004956     Total SCF correction =     0.000613
     SCF correction compared to forces is large: reduce conv_thr to get better values

     negative rho (up, down):  2.715E-02 0.000E+00

     negative rho (up, down):  2.715E-02 0.000E+00

     negative rho (up, down):  2.715E-02 0.000E+00

     negative rho (up, down):  2.715E-02 0.000E+00

     negative rho (up, down):  2.715E-02 0.000E+00

     negative rho (up, down):  2.715E-02 0.000E+00

     negative rho (up, down):  2.715E-02 0.000E+00

     negative rho (up, down):  2.715E-02 0.000E+00

     negative rho (up, down):  2.715E-02 0.000E+00

     negative rho (up, down):  2.715E-02 0.000E+00

     negative rho (up, down):  2.715E-02 0.000E+00

     negative rho (up, down):  2.715E-02 0.000E+00

     negative rho (up, down):  2.715E-02 0.000E+00

     negative rho (up, down):  2.715E-02 0.000E+00

     negative rho (up, down):  2.715E-02 0.000E+00

     negative rho (up, down):  2.715E-02 0.000E+00

     negative rho (up, down):  2.715E-02 0.000E+00

     negative rho (up, down):  2.715E-02 0.000E+00

     negative rho (up, down):  2.715E-02 0.000E+00

     negative rho (up, down):  2.715E-02 0.000E+00

     negative rho (up, down):  2.715E-02 0.000E+00

     negative rho (up, down):  2.715E-02 0.000E+00

     negative rho (up, down):  2.715E-02 0.000E+00

     negative rho (up, down):  2.715E-02 0.000E+00

     negative rho (up, down):  2.715E-02 0.000E+00

     negative rho (up, down):  2.715E-02 0.000E+00

     negative rho (up, down):  2.715E-02 0.000E+00

     negative rho (up, down):  2.715E-02 0.000E+00

     negative rho (up, down):  2.715E-02 0.000E+00

     negative rho (up, down):  2.715E-02 0.000E+00

     negative rho (up, down):  2.715E-02 0.000E+00

     negative rho (up, down):  2.715E-02 0.000E+00

     negative rho (up, down):  2.715E-02 0.000E+00

     negative rho (up, down):  2.715E-02 0.000E+00
 BEEFens 2000 ensemble energies
             -0.165220487205954E+01
             -0.637226143575744E-01
             -0.353033880715013E+00
              0.114467982611049E+01
             -0.540642473821292E+00
             -0.424456984965877E+00
             -0.120699090701957E+01
             -0.250995002524895E+01
             -0.951521519419249E+00
             -0.101702638632818E+01
             -0.925987818880593E+00
              0.126451737191175E+00
              0.826078744556646E-01
             -0.855514814034182E-01
              0.106166704148897E+00
              0.121667752495646E+01
             -0.540822186412909E+00
             -0.317013362477529E+00
              0.581741473642719E+00
             -0.287585654355106E+01
              0.146220284718696E+01
             -0.511074694736596E+00
             -0.164811940235291E+00
             -0.244502794008800E+00
              0.317627757530676E-01
             -0.171726637839334E+00
              0.229566058479965E+01
             -0.540004939001735E+00
             -0.235991756793794E+00
             -0.144176095444565E+01
              0.184270630889596E+01
             -0.172097063590939E+00
             -0.108176835481550E+01
              0.509324272059385E+00
             -0.749561752348678E-01
              0.694629695104060E+00
              0.248297520587215E-01
              0.275681706519251E-01
              0.903021234308409E+00
             -0.263441829973739E+01
              0.142140712325676E+01
              0.304285434286584E+00
             -0.271855561943926E+00
             -0.807298021743646E+00
              0.304348565855025E+00
             -0.435440207689354E+00
              0.129254842729831E+01
              0.924323015324299E+00
             -0.534119551841954E+00
             -0.822205017633809E+00
             -0.773068975030361E+00
             -0.946457851296173E+00
              0.509209560578557E+00
             -0.137657299735936E+01
              0.408621935843879E+00
              0.157784081500324E+01
              0.190788854185333E+01
              0.834062476423261E+00
              0.460775931731806E+00
              0.809705689115784E+00
              0.234268848308419E+01
              0.479563426068193E+00
             -0.143986436914360E+01
             -0.268530354854265E+00
             -0.746325949703921E+00
              0.163195369704150E+01
             -0.192592681951832E+01
             -0.152590096556966E+01
             -0.819747707762973E+00
             -0.424421932304327E+00
             -0.106922756057617E+01
              0.710451876611986E+00
              0.335776919379017E+00
              0.402761770806499E+00
             -0.977938016775384E+00
             -0.924414182249823E+00
             -0.150092046206759E+01
              0.861256384451146E+00
             -0.868026950368232E+00
              0.774882386652728E+00
             -0.179887290561174E+00
             -0.754725536413590E+00
             -0.136992098981301E+01
             -0.400922399493652E+00
             -0.428143707317570E+00
             -0.420013039335917E+00
              0.100138150418369E+01
              0.195846717790617E+01
             -0.116846389457993E+01
             -0.209207227704974E+01
             -0.482075229011068E+00
              0.285722117287649E+01
             -0.142643748565592E+01
              0.801040714487887E+00
             -0.298309436060784E+00
             -0.157470229146125E+01
              0.721887380173220E+00
              0.832507947867322E+00
             -0.371821375107986E+00
              0.750927548826585E+00
             -0.663386563183632E+00
             -0.153773994824113E+01
              0.255474700250783E+01
              0.118981177449837E+01
              0.596205947246311E+00
              0.337316019655276E+00
              0.573936235782168E+00
              0.212184741161688E+01
             -0.684445350328667E+00
              0.665273436535032E-01
             -0.361243906721776E+01
              0.497221993552251E+00
             -0.173294268958217E+01
              0.320891521780720E+00
              0.557616891004804E+00
             -0.942238866033403E+00
             -0.131643194182283E+01
              0.874872069471948E-01
             -0.778669858788943E+00
              0.112181807540676E+01
             -0.117606476741995E+01
             -0.185501476463518E+00
             -0.992713771517565E+00
             -0.978305442065750E-01
              0.833590276545690E-01
              0.538081372471549E+00
             -0.144289054161426E-01
             -0.172554432289665E+00
              0.168809558957739E+01
              0.237692440250963E+01
              0.126777369778128E+01
              0.176258243105306E+01
             -0.352226764509418E+00
              0.238862844141231E+00
              0.135741084489092E+01
              0.670364164911250E-01
             -0.196653404194979E+01
             -0.110037734288163E+01
             -0.125112399076172E+01
             -0.762066104478159E+00
              0.650329560169540E+00
             -0.314634908546565E+01
             -0.318351376235209E+00
              0.119065337049370E+01
             -0.104580381178178E+01
             -0.769808539697177E+00
              0.145601624122162E+01
              0.126698251096285E+01
             -0.736189793831622E+00
              0.770946730977846E+00
             -0.633803302980164E+00
              0.981406741195767E+00
              0.204508249835420E+00
              0.310751063427869E+00
             -0.214158719899061E+01
             -0.125355950971263E+01
             -0.224906649258937E+00
             -0.517714810933026E-01
             -0.109835004244869E+01
              0.284781144583330E+01
             -0.336662266204792E+00
             -0.705481391638566E+00
              0.104287499381838E+01
             -0.118495922901180E+01
             -0.951732602958104E+00
              0.823092905314329E+00
              0.299302403159246E+00
              0.264174580869344E+00
              0.380087219823294E+00
             -0.276937726480570E+00
              0.287585697850078E+00
              0.153037502036188E+01
             -0.732058768484142E+00
              0.560530396911702E+00
              0.230068419644245E+01
              0.805076977827818E+00
             -0.126375039937074E+00
             -0.510570845007209E+00
              0.401635231656015E+01
             -0.613680292381475E+00
              0.989820978545279E+00
              0.765848324163052E+00
              0.764545007657699E+00
              0.242068590817049E+01
              0.120868449877003E+01
             -0.152932121781190E+00
              0.628657309779827E+00
              0.132408765665661E+01
              0.101433625009735E+01
             -0.157555323693697E+01
              0.243173795357887E+01
             -0.222009403787732E+01
             -0.319271963945794E+00
              0.147357916731196E+01
              0.374958956103243E+00
              0.136988740683798E+00
              0.753092329943949E+00
              0.418891796968072E+00
              0.860295418221828E+00
             -0.162929115689135E+01
              0.985268379041653E-01
             -0.607518076000519E+00
             -0.183426019606065E+00
             -0.584132757471387E-01
             -0.307442356582740E+00
             -0.160399599491394E+00
              0.215437047897753E+01
             -0.136831821455461E+00
             -0.755841100450614E+00
             -0.381033890146638E-01
              0.359637002451744E+00
             -0.165054347609313E+01
             -0.136279420231043E+01
             -0.884891634345285E+00
             -0.162180009519392E+01
             -0.489215217486586E+00
             -0.105060289275215E+01
              0.491234952240341E+00
              0.331465710257688E-01
             -0.330627927620712E+00
             -0.218054885162078E+00
              0.136268982948404E+00
             -0.411100232150904E+00
              0.166628217139071E+01
             -0.224294094493794E+01
             -0.344671516048551E+00
             -0.376154837432239E+00
              0.405727116115237E+00
              0.511658351310688E+00
             -0.131192018181735E+01
             -0.343523172740457E+00
              0.115159819909458E+01
             -0.528877631008845E+00
              0.336217808836445E+00
              0.896678240061806E+00
             -0.170970515710529E-01
              0.299404002367976E+01
             -0.341352730984291E+00
             -0.907070782379137E+00
              0.359757489267931E-01
             -0.704846029786030E+00
              0.140817249776669E+01
             -0.119495867242969E+01
              0.332549471973589E+00
              0.135614263916686E+01
             -0.350614286752384E+00
              0.304903466853077E+01
              0.331028994592096E+01
             -0.181630497443333E+01
              0.147666121543119E+01
              0.572618417700985E+00
             -0.144068020590951E+01
              0.483129934927932E+00
              0.106218730273054E+01
              0.117961555146669E+01
              0.125981614693453E+00
              0.417366188525847E+00
              0.190585210762186E+01
             -0.592319422788949E+00
              0.242999180499662E+00
              0.179402120593267E+01
             -0.950364490551923E+00
             -0.578533979185679E+00
              0.149907194860628E+01
              0.786392852152212E+00
              0.201408452029014E+01
              0.838326994547485E+00
              0.319482383099938E+00
              0.657480274922115E+00
              0.108638933696111E+01
             -0.130200215881905E+01
              0.168274464646769E+00
              0.635448099518177E+00
              0.275700458191395E+00
              0.607927737552754E+00
             -0.158297000057182E+01
              0.848568828359447E+00
             -0.112904846344340E+01
             -0.792553019832289E+00
              0.464973544110546E+00
             -0.253507964378247E+00
              0.151870499780508E+01
             -0.432883969459134E+00
              0.751124278655194E+00
              0.780216417067113E+00
              0.201300857547053E+01
              0.136134801222109E+01
              0.131728631023460E+01
             -0.139020489273020E+00
             -0.263176621883225E+00
             -0.767111878520785E+00
              0.209098871667367E+01
              0.213759872333021E+01
              0.100923246045859E+01
             -0.711330396899569E+00
              0.128675111481584E+01
             -0.504605815579291E-01
              0.482708691620253E+00
              0.177117453344879E+01
             -0.612661979540330E-01
             -0.265954994716909E+00
             -0.575703178350185E+00
             -0.152865009301402E+01
              0.249386178108959E+01
              0.127335338221046E+01
             -0.164365270634379E+01
             -0.540786409613948E+00
              0.673216714925543E+00
             -0.292111937389548E+00
              0.169127675525038E+01
              0.407065023619731E+00
              0.210045499152127E+01
              0.753789357449687E+00
             -0.650669253235050E+00
              0.513554696226651E+00
             -0.179295786652670E+00
             -0.695617584405413E+00
              0.448334357948212E+00
              0.447792321195955E+00
              0.230240727134975E+01
              0.198549937946601E+01
              0.145576740488610E+01
              0.176824297516470E+01
              0.162801772213230E+00
             -0.665783126318011E+00
              0.344298528246847E+00
             -0.881517604508092E+00
             -0.143074895902810E+01
             -0.149688045757166E+01
             -0.820094855419228E+00
             -0.280440628333511E+01
             -0.926209006671217E+00
             -0.223482842631028E+01
              0.516144523762921E+00
             -0.117583509855263E+01
              0.127403190811986E+01
             -0.251832988227093E+01
             -0.769749755847811E+00
              0.107813808471084E+01
              0.571652122188891E+00
             -0.231647734497807E+01
              0.142378844106628E+01
             -0.727861718537283E+00
              0.142932124430026E+01
             -0.752308776472920E+00
             -0.204063066957700E+01
              0.463122099243922E+00
             -0.171140299950577E+01
             -0.147865694773889E+00
             -0.962162657631749E-02
              0.110572325276369E+01
              0.325252393192310E+01
             -0.113520051881996E+01
             -0.984861493609664E+00
             -0.144775687132036E+00
             -0.233096158173645E+00
             -0.208167975281005E+01
             -0.148340899216427E+01
              0.131368913854966E+01
             -0.512153722286790E+00
              0.537038753096221E+00
             -0.128323425791024E+01
             -0.398023757884046E+00
             -0.108551910951563E+01
              0.126330662656789E+01
              0.373673597726309E+00
             -0.622797160232382E+00
             -0.427239071645814E+00
              0.319971681976288E+00
             -0.214474344646753E+00
              0.106262195669560E+01
             -0.691229932111307E+00
              0.234378236546181E+00
              0.850723149252224E+00
              0.363061329632892E+00
             -0.572003439890626E+00
              0.402753174844601E+01
              0.149447759911761E+01
              0.242194817019311E+00
              0.181986228539905E+00
             -0.156401065756468E+01
              0.845354523315635E+00
             -0.200719777476714E+01
             -0.862725560121900E+00
             -0.153022512254283E+01
             -0.458411775582688E+00
              0.150648228385202E+01
             -0.149478727139724E+01
              0.638997097893283E+00
             -0.852603535804697E-01
              0.541783679642673E-01
             -0.839995820663622E+00
             -0.108309662315894E+01
             -0.109515426215204E+00
             -0.932797337581808E+00
             -0.613096715447954E+00
             -0.102496724149863E+01
             -0.160117581349146E+00
             -0.837654467863120E+00
             -0.128027794563103E+01
              0.587826909406788E+00
             -0.364506013018779E+00
              0.589242215574679E+00
              0.238980387641466E+00
             -0.194227690933626E+01
             -0.134829295510403E+01
             -0.123874810367853E+01
              0.877198976614505E+00
             -0.139300476760532E+00
             -0.163359763202342E+01
              0.145391159251818E+01
             -0.110110181408511E+01
              0.148551347009607E+01
             -0.788293231837883E+00
             -0.127827607376379E+01
              0.681796225470478E+00
             -0.188369752915810E+01
             -0.851387099653639E+00
              0.155420599699292E+01
              0.512372045974194E+00
             -0.107204297149299E+01
              0.142056362820422E+01
             -0.422440063454221E+00
             -0.945419300467355E+00
             -0.791154316892792E+00
             -0.134316388382443E+01
              0.633402367208531E+00
             -0.225915166122943E+01
             -0.202361086180741E+01
             -0.196784276001804E+00
             -0.749802759019777E+00
             -0.154404932155662E+01
              0.196916471415082E+01
              0.354992920455368E+01
             -0.623516581456905E+00
             -0.774389384471004E-01
             -0.159241451178511E+01
              0.170734847058232E+01
              0.559337703770378E+00
             -0.504200918792982E+00
             -0.956943849197343E+00
              0.389552521646187E+00
             -0.157707572793343E+01
             -0.306625021594540E+00
             -0.228065871879956E+01
              0.879071885522478E+00
              0.328345162314736E+00
             -0.131525844793842E+00
             -0.252779945229598E+00
             -0.103422797235175E+01
             -0.304836147331747E+00
              0.349702767530561E+01
             -0.415994297281358E+00
             -0.122387295254776E+01
             -0.177814596224151E+01
              0.349253181797300E+00
             -0.961837048167059E+00
              0.231175931083161E+00
              0.851309883307408E+00
              0.117882998189464E+00
              0.904869366460335E+00
              0.439460096324626E+00
              0.152828507998707E+01
              0.692998196810619E+00
             -0.921182258231001E+00
              0.133098717656239E+01
              0.903875669722230E+00
              0.331532491985551E+00
              0.982712760509524E+00
             -0.759247576171591E+00
              0.186342057963744E+01
              0.630724659859521E+00
             -0.884920971558503E+00
             -0.144550783479067E+00
             -0.425498527464318E+00
              0.441862362668916E+00
             -0.704845016271066E+00
             -0.250385084533613E+00
             -0.329183875887971E+00
              0.211652924173297E+01
              0.149779749098962E+01
             -0.173667113275280E+01
             -0.174992760640527E+00
             -0.133870413368590E+01
             -0.371880299664062E+00
             -0.554705012422898E+00
              0.272717970960983E+00
             -0.103777412140224E+00
             -0.714281120021498E+00
              0.399027581127255E+00
             -0.232919024417852E+00
             -0.219508370341598E+00
              0.227029205761357E+01
              0.420927039435128E+00
             -0.212727865390210E+01
             -0.102313031626597E+01
              0.244956792849186E+01
              0.615633106675572E+00
             -0.214198213477362E+00
              0.285011921186431E+01
             -0.484048313620371E+00
             -0.212079459024705E+00
             -0.273944972525840E+00
              0.401838851487557E+00
              0.816037596005424E+00
              0.729784336664618E-01
              0.740580136722128E+00
             -0.320714778241314E+00
             -0.972828167067588E+00
             -0.100785862794117E+01
             -0.127036818915005E+01
              0.107720953305181E+01
              0.388281392237217E+00
              0.981032813467280E+00
              0.406671620655358E+00
              0.232708318598945E+01
              0.512142724604443E+00
             -0.199458962829493E+01
             -0.855023896949709E+00
              0.131647772273979E+00
             -0.731443473089513E+00
              0.163927201102486E+01
             -0.418906081810302E+00
              0.460911327573639E+00
              0.141313920880846E+01
             -0.208065524195226E+01
              0.385187914442444E+01
              0.499677171361060E+00
              0.625215975326876E+00
              0.970777350487653E+00
              0.125725312672810E+00
             -0.729027935495541E-01
              0.866829344648014E+00
             -0.890798922542421E+00
              0.221081544267288E+01
              0.192748640648328E+01
             -0.100411890700720E+01
              0.448237488743914E+00
              0.187823891485642E+01
             -0.578743838164194E+00
              0.496939544220303E+00
              0.919321625640400E+00
              0.111209507507452E+01
             -0.194944585383727E+01
             -0.190891389400914E+00
             -0.757406605800715E+00
             -0.162933842940591E+00
             -0.157202390961898E+00
              0.112731824752739E+00
             -0.389161151838049E+00
             -0.758116280298914E+00
              0.369274335711828E+00
              0.194859410302086E+00
              0.138848438296186E+01
             -0.117089390485662E+01
              0.112232414780745E+01
              0.128217041597816E+01
             -0.311906185381893E+00
              0.201983792530865E+01
             -0.175165217778704E+01
             -0.269204426237574E+01
             -0.174180538161560E+00
             -0.178625003923912E+00
              0.217555111971421E-01
              0.199817248946781E+01
             -0.758722728357908E-01
              0.109016911886817E+01
              0.148488341166361E+01
              0.101561943945934E+01
             -0.136702306555858E+00
              0.159639768516528E+01
             -0.434408013774479E+00
             -0.984026580273618E+00
             -0.101363197693143E+01
              0.231146319413728E+00
              0.974265128667565E+00
             -0.946077386391657E-01
              0.925665525313176E+00
              0.168192716138904E-02
              0.149915349673244E+01
              0.477851526859937E+00
              0.198062934989565E+00
             -0.639809955831971E-02
              0.792553031588342E+00
              0.106495718280324E+01
              0.431347755343412E+00
             -0.842343567661734E-01
             -0.139739650554637E+01
              0.776748668471498E+00
              0.535964794983078E+00
              0.907634259070423E+00
              0.806562299870444E+00
              0.936987783722156E+00
             -0.232059374151905E+00
              0.828484216546418E+00
             -0.735549371543161E+00
             -0.513394347617222E-01
             -0.139299086338924E+01
             -0.912368930793947E+00
              0.111912784405895E+01
             -0.231066790045844E+01
              0.670630773890350E+00
              0.368570311411975E+00
              0.221734437808150E+01
             -0.448012928473678E+00
              0.826701671322542E+00
             -0.308504196963165E+00
             -0.127722778324327E+01
             -0.178254087700385E+01
             -0.339164372367856E+00
             -0.235492926933304E+01
              0.274404927448945E+00
             -0.556931357583837E+00
              0.835375975518797E+00
              0.574413567904775E+00
             -0.712962851429078E+00
             -0.741608232876388E+00
              0.111363580891334E+01
             -0.145219062819638E+01
             -0.331889510080932E+00
             -0.438584851502430E+00
              0.653942236767661E+00
              0.432122526359020E-01
              0.110671219254326E+00
             -0.429801587931787E+00
              0.140518867470218E+01
             -0.143812488044046E+01
              0.214465283521886E+00
              0.154486922476937E+01
             -0.920045662005779E+00
              0.763979595890696E-01
             -0.580858425878539E-02
             -0.174803564236414E+01
             -0.108317567704855E+01
             -0.918777500517098E-01
              0.772845532628545E+00
              0.863802646179648E+00
              0.121272200665547E+00
             -0.274319153306887E+00
              0.483993336757093E+00
             -0.109374129414230E+01
             -0.868024777435519E-01
             -0.135956633465402E+01
             -0.673068883059766E+00
              0.129227011785796E+01
             -0.790458150833137E+00
              0.177602258874325E+01
             -0.566460289717122E+00
              0.911271250352664E+00
              0.660297693515507E+00
             -0.156275418716785E+01
             -0.708645264593291E+00
              0.227628505291877E+00
             -0.103287642132226E+01
             -0.106628539407990E+01
             -0.227503091300311E+01
             -0.146467358927501E+01
             -0.130684572937007E+01
             -0.117306423541087E+01
              0.269046021978792E-01
              0.579982936220777E+00
              0.220180157188516E+00
              0.658348230642196E+00
             -0.152082244644080E+01
              0.327456645332610E+00
              0.657189026810972E+00
             -0.179100290867865E+01
             -0.152549937945242E+01
             -0.990803722696100E+00
             -0.783324805288641E+00
              0.422344249891145E+00
             -0.597967194296274E-01
             -0.114540485649890E+01
              0.797797897335442E+00
             -0.562475850521507E+00
              0.136169326783462E+01
             -0.227980997345446E+01
              0.160686306593646E+01
             -0.222661372954846E+00
             -0.111558215258107E+01
             -0.737696810815444E+00
             -0.110240947426119E-01
              0.124780315597033E+01
             -0.183503738272374E+01
             -0.345121232132447E+00
             -0.435027446600934E+00
              0.111727808334060E+01
              0.208000476735755E+01
             -0.256967910672243E+01
              0.240573412543133E+01
              0.107062112543442E+01
             -0.198459288212364E+01
             -0.854918637256022E+00
              0.202518476657531E+01
              0.149472140039573E+01
             -0.514017342315999E+00
             -0.184989286880732E+00
              0.435108381299892E+00
              0.197478931282543E+01
             -0.151680914346087E+01
              0.373193962849510E+00
             -0.183839744438984E+00
              0.742380101451486E+00
             -0.184307102155852E+01
             -0.958067103988602E-01
             -0.754042744301851E+00
              0.125475282506242E+01
              0.102687267152166E+01
             -0.228385471853287E+01
             -0.124812667695303E+01
             -0.557616740727624E+00
             -0.107991395615005E+01
             -0.349253887312003E+00
             -0.530623200371017E+00
              0.117325837006123E+01
              0.114708084880003E+01
             -0.976941367178927E-01
             -0.112056241636760E+01
             -0.219911695843463E+01
              0.127104702745423E+01
             -0.123579343185851E+01
             -0.923280340734697E+00
              0.190393515118458E+00
             -0.928397243652988E+00
             -0.106237131439848E+01
             -0.776987605677143E+00
             -0.126340044681520E+01
             -0.646690135058221E+00
             -0.130515518501480E+01
              0.147270744311504E+01
              0.159499273715324E+01
             -0.231708112548109E+00
             -0.575560016241626E+00
              0.617429294391485E-01
              0.109948300499250E+01
             -0.225237995240895E+01
             -0.617607228940875E+00
              0.132173409164747E+01
              0.178873913042992E+01
             -0.319892781423505E+00
              0.305605950679233E+00
              0.135083365950218E+01
              0.393881713080763E+00
             -0.292565180282667E-01
             -0.101739640147340E+01
              0.413467168372270E+00
             -0.873965816167482E+00
             -0.294149121903931E+00
             -0.528754770349394E+00
             -0.400496789942361E+00
              0.575859496784364E+00
              0.206419710992830E+01
             -0.156115154513307E+00
              0.629402430896970E-01
             -0.237681893108473E+01
             -0.471848927219536E+00
             -0.958258126853442E+00
              0.438453348308583E-01
             -0.116078823756947E+01
              0.225947805846580E+01
              0.225665822213145E+01
              0.483277075964363E+00
             -0.540108424601294E+00
              0.433061492206551E+00
              0.588072262954308E+00
             -0.119288783826796E+01
             -0.198040125404608E+00
              0.443283249251646E+00
              0.346009996690852E+00
              0.134587732491170E+01
              0.107813473017503E+01
             -0.566680584354858E+00
              0.637423158968565E+00
             -0.251861764000365E+01
             -0.922206639624459E-01
              0.232941375301010E+01
              0.451554277731833E+00
             -0.324814439944223E-01
              0.717862383193793E+00
             -0.616778626504775E+00
              0.234329496549078E+01
             -0.464742790039003E+00
              0.207134082804532E+01
              0.976571458059258E+00
             -0.112740666571086E+01
              0.849010836400256E+00
             -0.742111709783007E+00
             -0.175648552070328E+01
             -0.201343403755018E+00
             -0.143224431383090E+01
             -0.137322289403765E+01
             -0.543315885896645E-01
              0.919450093804450E+00
             -0.293497170328368E+00
             -0.844735271598388E+00
              0.186416110517451E+00
             -0.174706105069174E+01
             -0.120664623610370E+00
             -0.225165184954929E+01
              0.143661838962405E+01
             -0.116775425883605E+00
             -0.127131039640454E+01
             -0.488641389228812E+00
              0.450356755065649E+00
             -0.928489923816828E+00
             -0.116819801844768E+01
              0.230999157847639E+01
             -0.699974267490562E+00
             -0.106285230880779E+01
              0.777783650317541E+00
             -0.480254675357487E+00
              0.141580993732703E+01
             -0.120668000754804E-01
              0.118833359989678E+00
              0.277488566263126E+01
             -0.310626262206357E+00
             -0.985913789808226E+00
             -0.117482562865669E+01
             -0.138609048582252E+01
             -0.948709459978179E+00
              0.775969597025902E+00
              0.717822249751498E+00
              0.721536831934711E+00
              0.194978280687655E+01
              0.102239293525902E+00
              0.547672193060766E+00
             -0.157574140961606E+01
              0.372822066692979E-01
             -0.494332806377360E+00
             -0.698151306013777E+00
             -0.869983860132741E-01
              0.870917074110971E+00
              0.985229414996708E+00
             -0.449802367558740E-01
              0.280653109690842E+00
              0.746113757744836E+00
              0.955935919239225E+00
             -0.588337224718530E+00
             -0.257466977992621E+00
              0.330956769381476E-01
             -0.676031931925792E+00
             -0.147448384072325E+00
             -0.923941932541148E+00
              0.199375768089284E+01
              0.159348970673057E+01
             -0.413762947198801E+00
              0.377903101139193E+00
             -0.123316099416286E+00
             -0.734268110473312E+00
              0.943249022200030E+00
             -0.241282480228595E+00
              0.935214529629183E+00
             -0.128341631504304E+01
              0.462299732716286E+00
             -0.206247193389794E+00
             -0.141786939082377E+01
             -0.626530700454243E+00
              0.629229471848183E+00
             -0.250488049498384E+01
              0.100624289522009E+01
              0.123899524099968E+01
             -0.236975345517876E+00
             -0.175824256000290E+00
             -0.789226636202285E-01
              0.693662945802128E+00
             -0.863870624943193E+00
              0.827194348074486E+00
              0.832337779022970E+00
             -0.248825770319412E+01
             -0.930398472332580E+00
              0.615722704953184E+00
             -0.329731588019692E+00
              0.118374594816301E+01
             -0.159538146373144E+01
             -0.165381925642802E+00
             -0.104735112889374E+01
             -0.333649376742802E+01
              0.204945496566500E+01
             -0.158435110015602E+01
             -0.169993701540077E+01
              0.174061327586713E+00
              0.335636448393430E+01
              0.148539600535223E+00
             -0.768908017359728E+00
             -0.192250344079863E-01
             -0.125555321834987E+00
             -0.230156198688199E+01
             -0.148796219125882E+01
              0.220428686947514E+01
             -0.260820782334163E+00
             -0.973929194482309E+00
              0.131949245602622E+01
             -0.863437462301734E+00
              0.911470783793940E+00
              0.128754043938326E+01
             -0.146199707873410E+01
             -0.728139305540751E+00
             -0.848093855191003E+00
             -0.401178353786237E+00
             -0.529987069289548E+00
             -0.395705384756345E+00
              0.485199900777941E+00
             -0.903045351840927E+00
              0.740002243435502E+00
              0.148379159861779E+01
             -0.264205718270434E+00
             -0.497129324308418E+00
              0.363401271104628E+00
              0.142824892943640E+01
              0.140234864010956E+01
              0.174995431045137E+00
             -0.215073104544858E+00
             -0.233846807680585E+00
             -0.138298805402207E+01
              0.103596028434676E+01
             -0.669096334221813E+00
              0.552317451502379E+00
             -0.357349262677264E+00
              0.715078718220587E+00
              0.446122734624475E+00
             -0.212893218938139E+01
             -0.687721916355502E+00
             -0.204185553090642E+01
             -0.100604842895887E+01
              0.151430510413309E+00
             -0.493009396678355E+00
              0.880720950914831E+00
             -0.730372460320073E+00
              0.632329783745975E-01
              0.201124002109754E+00
              0.190743930676588E+01
              0.979162654097791E+00
             -0.790345676997349E+00
             -0.112523848527735E-01
              0.376342124705001E+00
              0.970431646643924E+00
             -0.835643106773531E-03
              0.143458267148310E+01
              0.742329524582063E+00
              0.233638466200102E+01
              0.115822718143684E+00
              0.167677825966571E+01
             -0.700834525020240E+00
             -0.103915464022975E+01
              0.121434127818858E+00
              0.251069076237950E+00
              0.657146473188927E+00
             -0.399693209880462E+00
             -0.325152658640072E+00
              0.590449418010870E+00
             -0.121032757200806E+01
             -0.149067007811247E+01
              0.203850304583916E+01
             -0.167499970401312E+00
             -0.102482406691763E+01
             -0.120497485382963E+00
             -0.363082468168349E+00
              0.103621474077916E+01
              0.944043867422229E+00
             -0.513831276793098E+00
             -0.281454519399902E-01
             -0.701358154436757E+00
             -0.902711756856835E+00
             -0.681982848303900E+00
             -0.254040484063356E+01
             -0.347953004499262E-01
             -0.173565107280982E+01
             -0.151431795206766E+01
             -0.103177719034884E+01
              0.530238693349064E+00
             -0.102149075941123E+01
              0.587941647285207E+00
             -0.162498007913422E+01
             -0.286993464484198E-02
             -0.110260678627720E+01
              0.167554653938399E+00
              0.207854224470621E+00
              0.848689257462767E+00
             -0.516991232918665E+00
             -0.497397304981751E+00
              0.782466353230595E+00
              0.156809140139528E+01
              0.835180883736649E+00
              0.260178484439045E+00
             -0.189608201245293E+01
             -0.364808756277510E+00
             -0.730745309824242E+00
             -0.162411334400028E+01
              0.112047509751550E+01
             -0.884297195156698E+00
             -0.188921069978866E+00
             -0.670078130012930E+00
             -0.261637452820838E+01
              0.144773629641679E+01
             -0.450149884964711E+00
              0.102425609968402E+01
             -0.193286357657791E+01
              0.169009190330506E+01
              0.141768440971687E+00
             -0.721702030966789E+00
              0.207874256839698E+00
             -0.570599488121973E+00
             -0.171148296519330E+01
              0.458895007236489E+00
              0.895308537020170E+00
              0.282633226557749E-02
             -0.903068545153676E+00
             -0.367370512223975E+00
              0.508910813682826E+00
              0.914084992674688E+00
              0.163751912355264E+01
              0.603498785225575E+00
             -0.605339095120272E+00
              0.248247303167116E+01
              0.630350442520384E+00
              0.115653091988171E+01
             -0.407622498589735E+00
              0.784061783559650E+00
              0.553507352063419E+00
             -0.160967775892197E+01
             -0.572582621204203E+00
             -0.102762669681642E+01
             -0.981524558705813E+00
             -0.278052198178882E+00
             -0.280658741958531E+00
             -0.110768359818638E+01
             -0.293121925738163E+01
             -0.718472543855331E+00
              0.398123500990366E+00
              0.153887067528952E+00
              0.338395909606861E+00
              0.112446884064906E+01
              0.355539158814558E+00
              0.827796977952792E+00
             -0.115219708343616E+01
              0.113680393953948E+01
             -0.109721518985863E+01
             -0.180236195938750E+01
              0.500587449311212E+00
             -0.104792710634687E+01
             -0.106559873342940E+01
             -0.415471520466216E+01
             -0.214565620077035E+00
              0.216125871800492E+01
              0.111400061680110E+01
             -0.261914206418055E+00
             -0.268759025050203E+00
              0.101092416987930E+01
              0.167393177704965E+01
             -0.102391130702729E+01
             -0.336261487909256E+00
             -0.909167202545767E+00
             -0.886318441322398E+00
             -0.818221387765016E+00
              0.344011380022829E+00
              0.186271667471751E+01
             -0.171230380373148E+01
             -0.140666781257868E+01
              0.747737214400335E-01
             -0.346641404010306E+00
             -0.472883835692599E+00
             -0.236620217412974E+01
              0.154394473339983E+01
              0.549956234761561E+00
              0.201151823511215E+00
              0.136650784907508E+01
             -0.824143306418126E+00
              0.874035996406228E+00
              0.755224729610048E+00
              0.997850266193607E-01
             -0.208850084687857E+00
              0.264757603722722E+00
             -0.394472163391284E+00
              0.131019811747589E+01
             -0.108803343968280E+01
              0.116304892949001E+01
              0.248700558109848E+00
              0.392747736498086E+00
              0.530170651562731E+00
             -0.211610735365519E+01
              0.213090259154481E+00
             -0.171457943754756E+01
             -0.127863309215383E+01
             -0.126678879762301E+01
             -0.131260460768912E+01
              0.274763548586172E-01
              0.443556758899140E+00
              0.128490814047920E+01
              0.215403341785896E+00
              0.370233879475832E+00
             -0.183134028277337E+01
             -0.736377147883668E+00
              0.848454048678531E+00
             -0.253778796707049E-01
             -0.559316321619061E-01
             -0.248911776456875E+00
              0.952365859280119E+00
             -0.237734333768962E+01
              0.346346035618533E+00
              0.597252186115965E+00
              0.105060032264808E+01
              0.989815592846185E+00
             -0.148607559553403E+01
              0.364529815429810E+00
              0.148217297652960E+00
              0.184582669128782E+00
              0.903790478822994E-01
             -0.520382364315059E+00
             -0.106527826832173E+01
              0.446408047282102E+00
              0.153978241629422E+01
             -0.872237990636116E-01
              0.337361020883083E+00
              0.321372904783290E+00
             -0.775757137408469E+00
             -0.791055454542597E+00
             -0.316078802152163E+01
             -0.102397020820681E+01
             -0.144772489177198E+01
             -0.190192041351173E+00
             -0.173754210950035E+01
              0.198359952101501E+01
             -0.855326107541057E+00
             -0.141123877186036E+01
             -0.410738174301631E+01
              0.176840644500336E+01
              0.370937890550982E+00
              0.126571285176929E+00
             -0.159217170118804E+01
              0.124759180677533E+00
             -0.397768598645709E+00
             -0.826212629399581E+00
              0.209584821090902E+00
              0.830215140467873E+00
              0.154280157847015E+00
             -0.489287594449802E+00
              0.427708991552187E-01
              0.201310248771591E-01
              0.351350763038512E+00
             -0.171984879735546E+01
              0.187545636423312E+01
             -0.108265419415899E+01
             -0.681729918119494E+00
             -0.125529784998928E+01
             -0.274466919865006E+01
              0.155987018804608E+00
             -0.141986734771302E+01
             -0.532699801350145E+00
              0.825420931367393E+00
             -0.673620870596563E+00
             -0.226839717326808E+00
             -0.317852973642759E+00
             -0.600184770089093E+00
              0.649625627537755E-01
              0.133829132012955E+01
             -0.135621252391146E+01
              0.262823957056569E+01
             -0.597931219835305E+00
              0.881763254162656E+00
             -0.382971962639683E+00
              0.341158819490485E+00
             -0.320953734012047E+00
              0.119522047123188E+01
              0.166705716138094E+01
              0.477283878810601E+00
              0.126803222687741E+01
             -0.832037718742957E+00
             -0.146495735585700E+00
             -0.645845021110086E+00
              0.165434262096390E+01
              0.142625866567571E+01
              0.105303805686370E+01
             -0.362577623554937E+00
             -0.693883829565642E+00
              0.636483970782607E+00
             -0.717347860388838E+00
             -0.375855744036144E+00
             -0.175411016778647E+00
             -0.871674136232559E+00
              0.131375999696638E+01
             -0.248265320086479E+00
              0.951582292536674E+00
              0.500495339852558E+00
              0.428069777782079E+00
             -0.901660622961700E+00
              0.728150359980506E+00
             -0.370426232132466E+00
             -0.199294961232725E+00
             -0.376812094796986E-01
             -0.130206377156312E+01
              0.204520927650153E+01
             -0.740641176834922E+00
              0.770573959856868E-02
              0.601399928692577E+00
              0.520218746890164E+00
              0.197968167451872E+01
             -0.568342470459894E+00
              0.198009360811611E+01
              0.175764182042535E+01
             -0.246959244140813E+01
              0.217449424289477E+00
             -0.495386712694883E+00
              0.282778395372539E+00
              0.121047024328873E+00
              0.511432780647377E+00
              0.166110041478540E+01
              0.249979344583382E+01
             -0.195927697816001E+01
              0.200242144602548E+01
             -0.255700922657853E+01
             -0.215958868249550E+01
             -0.350528090755347E+00
              0.350050148545726E-01
              0.200063824642965E+01
              0.898811939968354E+00
             -0.413786819393829E+00
             -0.225103768570698E+01
              0.175751564988871E+01
             -0.111490425283849E+01
              0.310026398487437E-01
             -0.112870470950709E+00
              0.338406317827443E+01
             -0.636123119613128E+00
             -0.273859762583914E+01
              0.802595219284424E+00
             -0.423031196097989E+01
              0.342058118980689E+00
             -0.995727877289656E+00
             -0.445310731974778E+00
             -0.704040162167725E+00
             -0.154326561616565E+01
              0.987186091482366E+00
             -0.919403509659648E+00
             -0.326946917642118E+00
             -0.198687289190965E+01
             -0.134041998342749E+00
             -0.137365863157955E+01
             -0.198787533039018E+01
             -0.290495140850867E+01
              0.232009174451823E+00
             -0.905071556791148E+00
              0.149028787095601E+00
             -0.319220431322359E+00
             -0.213896250298476E+01
             -0.165231811803742E+01
             -0.146098704746588E+01
             -0.145986668430170E+01
              0.136588609405054E+01
              0.218132939008816E+00
             -0.126817577473720E+01
             -0.608983392066719E+00
             -0.686355753924613E+00
              0.103559530186417E+01
             -0.844454805765608E+00
             -0.195711398247854E+00
             -0.735894819982567E+00
             -0.103844013221112E+01
             -0.104213879550371E+01
              0.107000247591062E+01
             -0.345524823748857E+00
             -0.235307878652516E+01
              0.205967882410425E+01
              0.121457361112906E+01
              0.117973994689688E+00
             -0.205712527247890E+01
             -0.196455643923189E+01
              0.194940334058032E+00
              0.400247302828696E-01
             -0.867805353896273E+00
             -0.120215942687283E+01
              0.852732790176905E+00
             -0.161389846832192E+00
              0.701922958579724E+00
              0.123674141564121E+01
              0.933125439943465E+00
              0.694263837019580E+00
              0.588460893729127E+00
             -0.580761907044438E+00
             -0.369378743113788E+00
             -0.470219267319633E+00
             -0.973768456642139E+00
             -0.125828561520192E+01
             -0.162337898448452E+01
             -0.963464850323072E+00
             -0.307463767629593E+00
             -0.199848681336784E+01
             -0.374440391297377E+00
              0.857646604870578E+00
             -0.208136008915823E+01
              0.876182589070597E+00
              0.681160413325846E+00
             -0.184100310826410E+01
             -0.147253488068445E+01
             -0.549517609164861E+00
              0.388075242783067E+00
             -0.106573662239708E+01
              0.193640242295773E+01
              0.171501467644426E+01
             -0.199846720176778E+01
              0.117715869180768E+01
              0.944090344689631E+00
              0.248606382225117E+00
              0.534591938664875E+00
             -0.109899261469251E+01
             -0.400675030199429E+00
              0.138486729733300E+00
              0.510861426763012E+00
              0.111520310747003E+01
             -0.141755124256761E+01
             -0.236009413292454E+00
              0.450033483790538E+00
              0.119323350311775E+00
             -0.852525176556710E+00
              0.482097126368218E+00
             -0.681332530161470E+00
             -0.453952366731777E+00
              0.170588129817002E-01
             -0.160543753432029E+01
              0.101185433732849E-01
             -0.347806580818135E+00
             -0.383152894885589E+00
              0.300223225328782E+00
             -0.140477811233074E+01
              0.147194850938260E+01
             -0.586909834287533E+00
             -0.345065889578798E+01
             -0.225408463301414E+01
              0.934117968992339E+00
             -0.101999854154888E+01
             -0.553876046071196E+00
             -0.671448446721751E+00
             -0.472014211081781E+00
             -0.267963044220919E+01
             -0.100763904110998E+00
             -0.162291279711345E+01
             -0.833354242213147E+00
              0.589038447221309E+00
              0.199953331141687E+01
              0.800570188295592E-01
              0.581418096199680E-01
              0.155298729021608E+01
             -0.141393656821459E+01
              0.788925005396648E+00
              0.186435629914762E+00
             -0.129081721651764E+01
             -0.690616935696513E+00
              0.538189477517930E+00
              0.625566002642381E-01
              0.391417703824539E+00
              0.377007599127906E+00
             -0.615911762044423E+00
             -0.786565329212181E+00
             -0.130087570861699E+01
              0.127903764033034E+01
             -0.174813949495417E+01
             -0.128615846799460E+01
              0.377840048725606E+00
             -0.224006179225561E+01
              0.551814909899997E+00
              0.152217551126322E+01
             -0.262470336395149E+00
              0.433294992885366E+00
             -0.797145704521093E+00
             -0.563961274011241E+00
              0.279859984175003E+00
              0.947256864598491E+00
             -0.974618348697835E+00
              0.629056547253668E+00
             -0.362721680047926E+00
              0.672614382108900E-01
              0.541396088846233E+00
              0.326814663207510E+00
             -0.265354747949230E+00
             -0.213826634643564E-01
              0.403025178619085E+00
              0.716740782476711E+00
             -0.183987702887179E+01
             -0.107037610584726E-02
              0.141993289390082E+01
             -0.237615939093140E+01
              0.862502927975127E+00
             -0.300984143270667E+01
             -0.266942973644885E+00
             -0.383450902365207E+00
             -0.975713738965638E-01
             -0.287585463135962E+00
             -0.729627060972016E+00
             -0.212064761511737E+00
              0.400448297772648E+00
             -0.607083719370327E+00
              0.295125823593770E+00
              0.233088788242252E+01
             -0.153998541981280E+01
             -0.679258097500908E+00
              0.103886167368158E+01
              0.556293445618160E+00
              0.106027678359540E+01
              0.457224370910190E+00
              0.546057815747103E+00
             -0.388280908947374E+00
             -0.129112486155298E+01
             -0.114196999091503E+01
             -0.796303684302712E+00
              0.102977952915889E+00
             -0.108940553245464E+01
             -0.310855846597224E+00
              0.171553296654770E+00
              0.629311754080021E+00
             -0.191434822242039E+00
              0.150883336512293E+01
             -0.160013385997016E+01
             -0.652131823045163E-01
             -0.197540224320559E+00
              0.806023474273416E+00
             -0.115082240531993E+01
             -0.734145139700400E+00
              0.464964166997325E+00
              0.125572302428672E+01
              0.190978154641941E+01
              0.846437778584937E+00
              0.117172227087332E+01
             -0.680705273458898E+00
              0.163378611116885E+01
              0.165946534596875E+01
             -0.955252633744763E-01
              0.883116827353418E+00
              0.101030801476187E+01
             -0.556205038352605E+00
              0.273067785473488E+00
              0.170580938585104E+01
             -0.593895095132119E+00
             -0.230408802136292E+00
             -0.164459318504471E+01
              0.627684790205555E+00
             -0.324805255870311E+00
              0.537887605622172E+00
              0.963506733154480E-01
             -0.104051675309032E+01
              0.120065665874535E+01
              0.104107212380016E+01
             -0.766864786835464E+00
              0.432032660620285E+00
             -0.151334194784720E+01
             -0.141471542561405E+01
              0.647913987352567E+00
             -0.179170112529698E+01
             -0.871473624847871E+00
              0.969518432006211E-01
              0.221769533833909E+01
             -0.575472119698706E+00
             -0.264832095021154E+00
             -0.475331142648825E+00
              0.293797265863631E+01
              0.491885375639454E+00
             -0.109165828932811E+01
              0.180804245538152E+01
              0.161929904231957E+01
              0.847178469212374E+00
              0.204514818220053E+01
              0.219862497718068E+01
             -0.155878098584059E+00
             -0.783393386328933E+00
             -0.708661934351202E+00
              0.689973438149508E+00
              0.999794603367919E+00
             -0.165478506332439E+00
             -0.606519914111683E+00
             -0.151010321381733E+01
             -0.616625378340601E+00
             -0.120888517066862E+01
              0.853657223271476E+00
              0.427575777351077E+00
              0.154910821843503E+01
              0.287943107551517E+00
             -0.625025252818684E+00
             -0.231538779173473E+00
              0.105481095152291E+01
              0.293003466610809E+00
              0.153309545777233E+01
              0.146709995225932E+01
             -0.271536270651694E+00
             -0.202200156194375E+00
             -0.258622582783649E+01
              0.130959271069693E+01
             -0.584128269649113E-01
              0.143613880494395E+01
             -0.619957041996952E+00
             -0.168228317218457E+01
              0.495884588754354E+00
              0.186419267310313E+01
             -0.662255197493155E+00
              0.175811776760765E+01
             -0.187212871693958E+01
             -0.660771001913636E+00
             -0.218762559073140E+01
              0.494957942412330E+00
              0.191001371384743E+00
              0.162946420027588E+00
             -0.160000284635039E+01
              0.235747649431827E+01
              0.138573005182086E+01
              0.169684742725630E+00
             -0.131734175001499E+01
              0.529338316767662E+00
             -0.547392045330025E+00
             -0.339580359059429E+00
             -0.656889741819057E+00
              0.465710583184937E+00
             -0.366109633297899E+00
             -0.480110893706510E+00
              0.583517412752913E+00
              0.615663586686259E+00
             -0.232157570121456E+01
              0.509977392123927E+00
              0.171834334388396E+01
              0.110702922356766E+01
             -0.368084904728740E+00
             -0.378796521870783E-02
             -0.957282546888671E+00
              0.148005030744139E+01
              0.296550115218831E+00
             -0.994069338504895E-01
             -0.141884656178485E+00
              0.284969469114685E+01
             -0.126682237064237E+00
              0.686473087880109E+00
              0.190200317342452E+01
              0.254115815121781E+01
              0.156782976068874E+01
              0.106150273985261E+01
             -0.161579854334903E+01
             -0.119079713868554E+01
              0.943939895207441E+00
              0.510764324707758E-01
              0.801523320306085E+00
              0.357751727424065E+00
              0.164521965392964E+01
             -0.206471529840248E+01
             -0.128418835637554E+01
             -0.263111473177684E+00
             -0.225555528076608E+01
              0.481286944077415E+00
              0.113464351867925E+01
              0.135359345284165E+00
             -0.546238959084715E+00
              0.557017576310908E+00
              0.355406915931331E+01
              0.787255666058831E+00
              0.455874014585493E+00
             -0.126928830788933E+01
             -0.157621136088327E+01
             -0.358984659907937E+00
              0.724357665497854E+00
             -0.153221909711199E+00
              0.614085110289583E+00
              0.899519809980351E+00
             -0.165303976031123E+01
              0.697386529012325E+00
              0.100832483881176E+01
              0.151931195937469E+01
             -0.250701543027997E+00
              0.899737311144140E-01
             -0.187830917866972E+00
             -0.119346479240200E+01
             -0.188994424489112E+01
              0.203612635477084E+01
             -0.258197553532955E+00
             -0.143167121778774E+01
              0.161320277187295E+00
             -0.755137473609023E+00
              0.224689203133609E+01
             -0.567040091256587E+00
             -0.961830334197628E+00
              0.911002841699695E+00
             -0.387806122199835E+00
              0.120212864022651E+01
             -0.248454701555065E-01
              0.247019347583233E+01
              0.132475906233622E+01
              0.219626864735302E+00
             -0.100426192981287E+01
              0.725719104000477E+00
             -0.142130579359075E+01
             -0.150668182111311E+00
              0.166534299109019E+01
             -0.664775522308322E+00
             -0.115245742659813E+01
             -0.573370793475138E+00
              0.135467846230380E+01
              0.334669273637385E+00
             -0.214787655847253E+01
              0.883973302973001E+00
              0.233608827501527E+00
              0.258744453040817E+00
             -0.125991904207191E+01
              0.224385833952422E+00
              0.907212309858046E+00
              0.125344124160461E+01
              0.165019743782644E+01
              0.868175799319831E+00
              0.208966258365264E+00
             -0.139117217486581E+01
             -0.110013561674700E+01
             -0.176391258447805E+01
             -0.312913537907306E+00
              0.874570685065285E+00
             -0.291074969632339E-01
              0.136139436833942E+01
             -0.828071205936890E+00
              0.462186757939531E+00
             -0.521759749580213E+00
             -0.692858801633065E+00
              0.151116831242174E+01
              0.146829136254952E+00
              0.159121809524001E+01
              0.138928396654524E+00
              0.553524151745647E+00
             -0.413226194439225E+00
              0.158120148925284E+01
             -0.363608034589133E+00
             -0.318997861238201E-01
             -0.202952490876584E+01
             -0.209875409901832E+00
              0.183020946858150E+01
              0.172624975294400E+01
              0.620495988069004E+00
             -0.393575400554496E+00
              0.858151478838112E-01
             -0.561547507725323E+00
             -0.397769050617129E+00
              0.230076204694936E+01
              0.145591129024254E+00
             -0.718548180189183E+00
             -0.280944618052569E+01
             -0.121251942135450E+01
             -0.970146065319963E+00
             -0.164410668287578E+01
             -0.153189202847379E+01
             -0.186490668877228E+01
             -0.116623685625414E+01
             -0.779002717661731E+00
             -0.122628297761258E+01
              0.115615204919514E+01
             -0.522463326926065E+00
             -0.235352273424053E+01
              0.109081193194950E+01
             -0.846308781414679E+00
             -0.207080488808476E+01
              0.262211338552839E+01
             -0.642912827163096E+00
              0.426927990132195E+00
              0.102108666851537E+01
              0.254104067067340E+00
              0.644448607930880E+00
              0.201485638824010E-01
              0.237101689393697E-01
             -0.310978064972687E+00
             -0.188314429837753E+01
              0.282999892554733E+00
             -0.318898278708846E+01
              0.179830740978184E+01
             -0.105279446795722E+01
             -0.444029618975404E+00
             -0.512261681785533E+00
              0.508110530808385E+00
             -0.443427887045113E+00
              0.771988068919568E+00
             -0.149960508032901E+01
              0.972884752326792E+00
              0.106664335164810E+01
              0.305953102189004E+00
              0.217795759780680E+00
              0.552761284123465E+00
              0.230414897326220E+00
              0.812769211033059E+00
             -0.147166545551682E+00
             -0.182136753294250E+01
              0.256163113463449E+00
             -0.851743848319042E+00
             -0.707551382804956E-01
              0.138237626055020E+01
             -0.209715436549433E+01
              0.292026403284513E-01
              0.666601596332601E-01
              0.234234675999737E+00
              0.814756010372728E+00
             -0.339178450621564E+00
              0.219502272010087E+01
              0.104472213484712E+01
             -0.409992831652993E+00
             -0.275433976178208E+00
              0.139439006125056E+00
              0.205946575735110E+01
             -0.131341916827988E+01
             -0.265218653343612E+01
              0.744050688089097E+00
             -0.196706862785481E+00
             -0.371923145832032E+00
              0.490698056800569E+00
              0.199832314859371E+01
              0.111601116750258E+01
             -0.453671283991690E+00
             -0.137978020322499E+01
             -0.291526075744024E+00
              0.728549508538160E+00
             -0.439004566732363E+00
             -0.195843688766703E+01
             -0.195506511047694E+00
             -0.249799493417357E+01
             -0.131319464092573E+01
              0.220802490156085E+01
             -0.133669608459325E+01
             -0.183384506839450E+01
             -0.138913411251248E+01
             -0.101034061239504E+01
              0.856194543924902E+00
              0.219499823618457E+01
             -0.199589496134838E+00
              0.701294966328170E+00
             -0.494107299142555E+00
             -0.176062285856429E+01
              0.133860883604348E+01
             -0.123956908900562E+01
              0.698721407228359E+00
              0.793813531321846E+00
             -0.375479760384387E+00
              0.103357843568791E+01
              0.104363630023021E+01
              0.304250913770840E+01
             -0.312909656285207E+00
             -0.137966022351914E+01
             -0.172731354613289E+01
             -0.464430945135655E+00
             -0.996009941169322E+00
              0.249299363882451E+01
             -0.117096917932046E+01
              0.256515944788863E+00
              0.100626186650139E+00
             -0.543046286985717E+00
             -0.218211398729737E+01
             -0.171521997997963E+00
              0.259752859945140E+01
              0.501269399451217E+00
              0.207364595928230E+00
             -0.146100325261657E+01
             -0.142429775177141E+01
             -0.409393615110029E+00
              0.119028755534234E+01
             -0.677235831783433E+00
              0.265315129835840E+01
             -0.116780967098884E+01
              0.484714245106619E+00
             -0.423676737685112E+00
             -0.161640112968278E+01
              0.165096249510913E+00
             -0.144955423824602E+01
             -0.192230456454411E+01
              0.247937642531037E+00
              0.420866716366031E-01
              0.127279467381034E+01
              0.675310290063957E+00
             -0.898645522079567E+00
              0.599134091481140E+00
             -0.223144069772417E+01
             -0.127111913848222E+01
              0.242812091963260E+01
              0.156779375428879E+00
             -0.190979648380818E+00
             -0.688943222613199E+00
             -0.102069546418946E-01
             -0.277150901781775E+00
              0.232248628321137E+01
              0.105654936792547E+01
             -0.270051634319714E+00
             -0.625276109722659E-01
             -0.102010619992997E+01
             -0.391561128068631E+00
             -0.165690689134817E+01
              0.132669014264397E+01
              0.166066826537918E+00
              0.235695068063476E+00
              0.442866001865146E+00
             -0.317337234333929E+00
             -0.564690725926266E+00
              0.127042679604981E+00
             -0.285752947445364E+01
             -0.312033776456011E+00
             -0.211945239100783E+00
             -0.172730209775252E+00
              0.134339687736786E+01
              0.164922201473845E+01
              0.444763949692813E+00
             -0.243448571140370E+01
              0.167718530208073E+01
             -0.630481647477430E+00
             -0.971976277348594E+00
             -0.227992047318834E+01
             -0.768297363636949E+00
              0.157403551640574E+01
              0.828396719393801E+00
              0.407874149412969E+00
              0.890443227911190E+00
             -0.145097654628034E+01
             -0.124259788677384E+01
              0.160159193313567E+01
              0.108299892862334E+01
              0.126224799156557E+01
              0.125025873516651E+00
              0.253672695931595E+00
              0.138323783592100E+01
              0.259262866288806E+01
             -0.521605038374430E+00
              0.102323766058371E+01
             -0.628337804497793E+00
             -0.113829424011753E+01
             -0.884376995884772E+00
             -0.823747296068493E+00
             -0.358459017809928E+00
             -0.126866412719415E+01
             -0.543834396921863E+00
             -0.340881619667623E+01
              0.819699108690686E+00
              0.717002144450939E+00
             -0.677688780817547E-01
             -0.987833295598911E+00
             -0.520031634804504E+00
             -0.143997988473033E+01
              0.184672697127853E+00
              0.208136289755004E+01
             -0.483500740517533E+00
             -0.482112741297382E+00
              0.492876754828778E+00
             -0.128707062738274E+01
              0.227291663990110E+01
              0.433473621910453E+00
              0.224228935465316E+00
              0.138120100512972E+01
             -0.983403191451657E-01
              0.153457850788562E+01
              0.492703036330945E+00
             -0.103360545965475E+00
              0.352392762168037E+00
             -0.203176429479443E+00
              0.180735500863626E+01
              0.186489666017602E+00
              0.509785725925363E+00
             -0.220247806023337E+00
              0.274447689114391E+00
             -0.245374599050312E+01
             -0.953514712419341E+00
             -0.126334846144260E+01
              0.136200624862936E+01
             -0.901302660227259E+00
             -0.151037642646708E+01
              0.154986399545975E+01
             -0.375874891374247E+00
              0.110569034004094E+01
             -0.235591130382148E+01
              0.531688195315720E+00
              0.135165527323679E+00
              0.140428863362466E+00
             -0.317077253061303E+00
             -0.162843600000585E+00
              0.129977172516930E+01
              0.739357867200132E-01
             -0.133463694421917E+01
             -0.535681137161466E+00
              0.543247420015111E+00
             -0.302957335833838E+01
             -0.232489406903484E+01
              0.357473750145392E-01
              0.386088895342183E+00
             -0.127175973929987E+01
             -0.623679624236395E-02
              0.273246560210817E+01
              0.829485038704824E+00
             -0.142012276067685E+01
              0.209004805451484E+00
             -0.269332325218464E+00
              0.317791005409481E+00
             -0.899715869309140E+00
              0.556802824253597E+00
              0.626080074835501E+00
             -0.230998260495822E+00
              0.292714110310065E+01
             -0.146000012891516E+00
             -0.826148486869251E+00
              0.762480202950956E+00
              0.111971456067086E+01
             -0.875642877400718E+00
             -0.299415351194647E-01
              0.254145509189966E+01
             -0.520988004163474E-01
              0.136141363856593E+01
              0.427719291016048E+00
             -0.218055058419018E+00
             -0.437662142803568E+00
              0.130645349727351E+01
             -0.154198216972527E+01
             -0.716714996211483E-01
             -0.502128908889429E+00
             -0.107674786269568E+01
              0.292379460562740E+00
              0.607747852339997E+00
              0.109238183036737E-01
             -0.561970131190499E-01
             -0.105530311719111E+01
              0.433599777653426E+00
             -0.419115690452654E-01
             -0.599825381308820E+00
             -0.549731474516571E+00
              0.498940374078827E+00
             -0.308897361488949E-01
             -0.100105037245044E+01
             -0.278227147392449E+01
              0.148286950016124E+00
              0.458222570028645E+00
             -0.123071019534397E+01
             -0.631032461270246E+00
              0.213658267551726E+01
              0.286789216442052E+00
              0.110738615417241E+01
              0.249369838589198E+00
              0.101494635960918E+01
              0.630811747881701E-01
             -0.104794012076926E+01
             -0.228625949722733E+00
              0.156794412477965E+00
              0.783076999766575E+00
              0.201370377280704E+01
              0.128577632250091E+01
              0.639631164802470E-01
              0.280654913847427E+00
              0.157535087208285E+01
              0.722701443570012E+00
             -0.186117050582894E+01
             -0.723997173197443E+00
              0.330166485795029E+00
              0.257269702221996E+00
              0.671226640776805E+00
             -0.136082184591686E+01
              0.165875030950124E+00
              0.104429899576847E+01
              0.128423345997762E+01
             -0.112056450109280E+01
              0.185975280479962E-01
             -0.696272974791441E-01
             -0.534755856657917E+00
             -0.714407260846201E+00
             -0.343836432920048E+00
             -0.242188460440098E+00
              0.272757486127198E+00
              0.109056920003926E+01
             -0.846331491833920E+00
              0.211360616940667E+01
              0.895437836993288E+00
              0.665062601995096E+00
              0.944186545655690E+00
              0.699585717002617E+00
              0.865564326245353E+00
              0.145130294577338E+01
             -0.123177357386670E+01
              0.164029159485267E+01
             -0.294466416774537E+01
              0.832120801848341E+00
             -0.276284826073863E+01
              0.211357491183730E+01
              0.203092535490292E+01
             -0.228644310524107E+00
             -0.124908634859168E+01
             -0.110599198878425E+01
             -0.144314244288620E+01
             -0.169512517794557E+01
              0.141775964261943E+01
              0.112781822453592E+01
              0.640429583137282E+00
              0.728694925941216E+00
              0.111578619012129E+01
             -0.105673386289988E+01
             -0.394972115241172E+00
              0.140413211891054E+01
             -0.305486653531180E+00
              0.128649305875555E+01
              0.199585598449277E+01
             -0.713944137187390E-01
             -0.195254181966442E+01
              0.926436226356788E-01
              0.567598992035253E-01
             -0.272436085099994E+00
              0.897858508118983E-01
             -0.170704944011807E+01
             -0.297486869826288E+00
              0.326117885308333E+00
              0.317374017516855E+00
              0.129059568586050E+01
             -0.107637177871750E+01
              0.143803692526165E+01
             -0.101459614788594E+01
              0.672537467288052E+00
              0.112563861444840E+01
 
 BEEF-vdW xc energy contributions
           1 :   -18.7627499196829     
           2 :    15.7954510038023     
           3 :   -11.4809985865789     
           4 :    7.35654518733684     
           5 :   -4.13145554924456     
           6 :    1.93708856308720     
           7 :  -0.628020886348203     
           8 :  -5.422247320329276E-002
           9 :   0.378655399490576     
          10 :  -0.559544498807487     
          11 :   0.695888381617497     
          12 :  -0.780654951678724     
          13 :   0.773913243581855     
          14 :  -0.673548747543556     
          15 :   0.519348173605813     
          16 :  -0.358768778476904     
          17 :   0.224044639427706     
          18 :  -0.131894493711020     
          19 :   7.929711009036922E-002
          20 :  -4.844547393178544E-002
          21 :   2.097518601058823E-002
          22 :   8.770500060364839E-003
          23 :  -3.632718937906176E-002
          24 :   5.260847878111363E-002
          25 :  -4.985647303977458E-002
          26 :   2.844409812321302E-002
          27 :   8.256660931245108E-004
          28 :  -2.670334117283346E-002
          29 :   4.145741869779940E-002
          30 :  -4.190662965257275E-002
          31 :   -2.33559990499253     
          32 :   -1.48570221442426     

     Writing output data file ./pwscf.save/
 
     init_run     :     74.01s CPU     76.95s WALL (       1 calls)
     electrons    :    571.51s CPU    623.13s WALL (       1 calls)
     forces       :     32.68s CPU     35.21s WALL (       1 calls)

     Called by init_run:
     wfcinit      :      2.25s CPU      2.32s WALL (       1 calls)
     potinit      :     57.89s CPU     59.93s WALL (       1 calls)
     hinit0       :     11.85s CPU     11.99s WALL (       1 calls)

     Called by electrons:
     c_bands      :    105.66s CPU    106.76s WALL (      15 calls)
     sum_band     :     54.65s CPU     63.99s WALL (      15 calls)
     v_of_rho     :    309.68s CPU    338.93s WALL (      16 calls)
     newd         :     22.20s CPU     31.85s WALL (      16 calls)
     PAW_pot      :      2.07s CPU      2.07s WALL (      16 calls)
     mix_rho      :    127.53s CPU    132.29s WALL (      15 calls)
     vdW_kernel   :     33.47s CPU     33.47s WALL (       1 calls)

     Called by c_bands:
     init_us_2    :      1.64s CPU      1.66s WALL (      31 calls)
     regterg      :    102.51s CPU    103.60s WALL (      15 calls)

     Called by *egterg:
     rdiaghg      :      0.03s CPU      0.03s WALL (     130 calls)
     h_psi        :     90.62s CPU     90.64s WALL (     131 calls)
     s_psi        :      2.46s CPU      2.46s WALL (     131 calls)
     g_psi        :      0.33s CPU      0.33s WALL (     115 calls)

     Called by h_psi:
     h_psi:calbec :      2.04s CPU      2.04s WALL (     131 calls)
     vloc_psi     :     85.58s CPU     85.58s WALL (     131 calls)
     add_vuspsi   :      2.48s CPU      2.48s WALL (     131 calls)

     General routines
     calbec       :      2.48s CPU      2.49s WALL (     150 calls)
     fft          :    281.35s CPU    281.38s WALL (    2873 calls)
     ffts         :     54.51s CPU     54.51s WALL (     567 calls)
     fftw         :     80.57s CPU     80.57s WALL (     835 calls)
 
     Parallel routines
 
     PWSCF        :  20m27.21s CPU  22m24.90s WALL

 
   This run was terminated on:  17:12:55  20Dec2022            

=------------------------------------------------------------------------------=
   JOB DONE.
=------------------------------------------------------------------------------=
