
     Program PWSCF v.6.7MaX starts on 20Dec2022 at 16:26:59 

     This program is part of the open-source Quantum ESPRESSO suite
     for quantum simulation of materials; please cite
         "P. Giannozzi et al., J. Phys.:Condens. Matter 21 395502 (2009);
         "P. Giannozzi et al., J. Phys.:Condens. Matter 29 465901 (2017);
          URL http://www.quantum-espresso.org", 
     in publications or presentations arising from this work. More details at
     http://www.quantum-espresso.org/quote

     Parallel version (MPI), running on     1 processors

     MPI processes distributed on     1 nodes
     Reading input from och3-gas-ensemble.in
Warning: card &CELL ignored
Warning: card / ignored

     Current dimensions of program PWSCF are:
     Max number of different atomic species (ntypx) = 10
     Max number of k-points (npk) =  40000
     Max angular momentum in pseudopotentials (lmaxx) =  3
     file O.pbe-nl-kjpaw_psl.1.0.0.UPF: wavefunction(s)  2S 2P renormalized
     file C.pbe-n-kjpaw_psl.1.0.0.UPF: wavefunction(s)  2S 2P renormalized
     file H.pbe-kjpaw_psl.1.0.0.UPF: wavefunction(s)  1S renormalized

     **************************************************************************
     Initializing libbeef V0.1.2 with the BEEF-vdW functional.
     Citation: Wellendorff et al., PRB 85, 235149 (2012).
     **************************************************************************


     IMPORTANT: XC functional enforced from input :
     Exchange-correlation= BEEF-VDW
                           (   1   4  43  14   2   0   0)
     Any further DFT definition will be discarded
     Please, verify this is what you really want


     gamma-point specific algorithms are used

     Subspace diagonalization in iterative solution of the eigenvalue problem:
     a serial algorithm will be used

 
     G-vector sticks info
     --------------------
     sticks:   dense  smooth     PW     G-vecs:    dense   smooth      PW
     Sum       31471   31471   7859              4258821  4258821  532303
 


     bravais-lattice index     =            0
     lattice parameter (alat)  =      40.7273  a.u.
     unit-cell volume          =   67826.5691 (a.u.)^3
     number of atoms/cell      =            5
     number of atomic types    =            3
     number of electrons       =        13.00
     number of Kohn-Sham states=           11
     kinetic-energy cutoff     =      60.0000  Ry
     charge density cutoff     =     240.0000  Ry
     scf convergence threshold =      1.0E-06
     mixing beta               =       0.7000
     number of iterations used =            8  local-TF  mixing
     Exchange-correlation= BEEF-VDW
                           (   1   4  43  14   2   0   0)

     celldm(1)=  40.727307  celldm(2)=   0.000000  celldm(3)=   0.000000
     celldm(4)=   0.000000  celldm(5)=   0.000000  celldm(6)=   0.000000

     crystal axes: (cart. coord. in units of alat)
               a(1) = (   1.000000   0.000000   0.000000 )  
               a(2) = (   0.000000   0.992849   0.000000 )  
               a(3) = (   0.000000   0.000000   1.011253 )  

     reciprocal axes: (cart. coord. in units 2 pi/alat)
               b(1) = (  1.000000  0.000000  0.000000 )  
               b(2) = (  0.000000  1.007203  0.000000 )  
               b(3) = (  0.000000  0.000000  0.988872 )  


     PseudoPot. # 1 for O  read from file:
     /users/bkreitz1/quantum-espresso/potentials/O.pbe-nl-kjpaw_psl.1.0.0.UPF
     MD5 check sum: eef08af8b58d9ec80f8fdb78829eb7cf
     Pseudo is Projector augmented-wave + core cor, Zval =  6.0
     Generated using 'atomic' code by A. Dal Corso  v.6.7MaX
     Shape of augmentation charge: PSQ
     Using radial grid of 1095 points,  4 beta functions with: 
                l(1) =   0
                l(2) =   0
                l(3) =   1
                l(4) =   1
     Q(r) pseudized with 0 coefficients 


     PseudoPot. # 2 for C  read from file:
     /users/bkreitz1/quantum-espresso/potentials/C.pbe-n-kjpaw_psl.1.0.0.UPF
     MD5 check sum: a169b0ebad56f5ec0d79c4633f80bf22
     Pseudo is Projector augmented-wave + core cor, Zval =  4.0
     Generated using 'atomic' code by A. Dal Corso  v.6.7MaX
     Shape of augmentation charge: PSQ
     Using radial grid of 1073 points,  4 beta functions with: 
                l(1) =   0
                l(2) =   0
                l(3) =   1
                l(4) =   1
     Q(r) pseudized with 0 coefficients 


     PseudoPot. # 3 for H  read from file:
     /users/bkreitz1/quantum-espresso/potentials/H.pbe-kjpaw_psl.1.0.0.UPF
     MD5 check sum: ae98473e6dc62675f0d0baffdab24f65
     Pseudo is Projector augmented-wave, Zval =  1.0
     Generated using 'atomic' code by A. Dal Corso  v.6.7MaX
     Shape of augmentation charge: PSQ
     Using radial grid of  929 points,  2 beta functions with: 
                l(1) =   0
                l(2) =   0
     Q(r) pseudized with 0 coefficients 


     atomic species   valence    mass     pseudopotential
        O              6.00    15.99900     O ( 1.00)
        C              4.00    12.01100     C ( 1.00)
        H              1.00     1.00800     H ( 1.00)

     No symmetry found



   Cartesian axes

     site n.     atom                  positions (alat units)
         1           O   tau(   1) = (   0.4946545   0.4969456   0.4658589  )
         2           C   tau(   2) = (   0.4966100   0.5008524   0.5283340  )
         3           H   tau(   3) = (   0.4585896   0.5304212   0.5466356  )
         4           H   tau(   4) = (   0.5409074   0.5213480   0.5448203  )
         5           H   tau(   5) = (   0.4919397   0.4546257   0.5510424  )

     number of k points=     1  Gaussian smearing, width (Ry)=  0.0050
                       cart. coord. in units 2pi/alat
        k(    1) = (   0.0000000   0.0000000   0.0000000), wk =   2.0000000

     Dense  grid:  2129411 G-vectors     FFT dimensions: ( 216, 200, 216)

     Estimated max dynamical RAM per process >       3.35 GB

     Initial potential from superposition of free atoms

     starting charge   12.99993, renormalised to   13.00000

     negative rho (up, down):  1.566E-02 0.000E+00


     %%%%%%%%%%%%%%%%%%%%%%%%%%%%%%%%%%%%%%%%%%%%%%%%%%%%%%%%%%%%%%%%%%%%%%%%
     %                                                                      %
     % You are using vdW-DF, which was implemented by the Thonhauser group. %
     % Please cite the following two papers that made this development      %
     % possible and the two reviews that describe the various versions:     %
     %                                                                      %
     %   T. Thonhauser et al., PRL 115, 136402 (2015).                      %
     %   T. Thonhauser et al., PRB 76, 125112 (2007).                       %
     %   K. Berland et al., Rep. Prog. Phys. 78, 066501 (2015).             %
     %   D.C. Langreth et al., J. Phys.: Condens. Matter 21, 084203 (2009). %
     %                                                                      %
     %                                                                      %
     % If you are calculating the stress with vdW-DF, please also cite:     %
     %                                                                      %
     %   R. Sabatini et al., J. Phys.: Condens. Matter 24, 424209 (2012).   %
     %                                                                      %
     %%%%%%%%%%%%%%%%%%%%%%%%%%%%%%%%%%%%%%%%%%%%%%%%%%%%%%%%%%%%%%%%%%%%%%%%


     Starting wfcs are   11 randomized atomic wfcs
     Checking if some PAW data can be deallocated... 

     total cpu time spent up to now is       73.4 secs

     Self-consistent Calculation

     iteration #  1     ecut=    60.00 Ry     beta= 0.70
     Davidson diagonalization with overlap
     ethr =  1.00E-02,  avg # of iterations =  5.0

     negative rho (up, down):  1.123E-02 0.000E+00

     total cpu time spent up to now is      110.8 secs

     total energy              =     -64.97951322 Ry
     estimated scf accuracy    <       0.41673079 Ry

     iteration #  2     ecut=    60.00 Ry     beta= 0.70
     Davidson diagonalization with overlap
     ethr =  3.21E-03,  avg # of iterations =  1.0

     negative rho (up, down):  9.060E-03 0.000E+00

     total cpu time spent up to now is      145.4 secs

     total energy              =     -64.95253148 Ry
     estimated scf accuracy    <       0.09915451 Ry

     iteration #  3     ecut=    60.00 Ry     beta= 0.70
     Davidson diagonalization with overlap
     ethr =  7.63E-04,  avg # of iterations =  4.0

     negative rho (up, down):  9.132E-03 0.000E+00

     total cpu time spent up to now is      182.0 secs

     total energy              =     -64.95985686 Ry
     estimated scf accuracy    <       0.05220468 Ry

     iteration #  4     ecut=    60.00 Ry     beta= 0.70
     Davidson diagonalization with overlap
     ethr =  4.02E-04,  avg # of iterations =  2.0

     negative rho (up, down):  1.315E-02 0.000E+00

     total cpu time spent up to now is      217.9 secs

     total energy              =     -64.95786792 Ry
     estimated scf accuracy    <       0.02663174 Ry

     iteration #  5     ecut=    60.00 Ry     beta= 0.70
     Davidson diagonalization with overlap
     ethr =  2.05E-04,  avg # of iterations =  5.0

     negative rho (up, down):  2.883E-02 0.000E+00

     total cpu time spent up to now is      254.6 secs

     total energy              =     -64.95709159 Ry
     estimated scf accuracy    <       0.00737008 Ry

     iteration #  6     ecut=    60.00 Ry     beta= 0.70
     Davidson diagonalization with overlap
     ethr =  5.67E-05,  avg # of iterations =  8.0

     negative rho (up, down):  7.100E-02 0.000E+00

     total cpu time spent up to now is      293.1 secs

     total energy              =     -64.95769367 Ry
     estimated scf accuracy    <       0.00374933 Ry

     iteration #  7     ecut=    60.00 Ry     beta= 0.70
     Davidson diagonalization with overlap
     ethr =  2.88E-05,  avg # of iterations =  5.0

     negative rho (up, down):  8.846E-02 0.000E+00

     total cpu time spent up to now is      330.8 secs

     total energy              =     -64.95858754 Ry
     estimated scf accuracy    <       0.01242932 Ry

     iteration #  8     ecut=    60.00 Ry     beta= 0.70
     Davidson diagonalization with overlap
     ethr =  2.88E-05,  avg # of iterations =  2.0

     negative rho (up, down):  7.470E-02 0.000E+00

     total cpu time spent up to now is      366.4 secs

     total energy              =     -64.95782859 Ry
     estimated scf accuracy    <       0.00616635 Ry

     iteration #  9     ecut=    60.00 Ry     beta= 0.70
     Davidson diagonalization with overlap
     ethr =  2.88E-05,  avg # of iterations =  1.0

     negative rho (up, down):  6.388E-02 0.000E+00

     total cpu time spent up to now is      401.6 secs

     total energy              =     -64.95758950 Ry
     estimated scf accuracy    <       0.00063893 Ry

     iteration # 10     ecut=    60.00 Ry     beta= 0.70
     Davidson diagonalization with overlap
     ethr =  4.91E-06,  avg # of iterations = 13.0

     negative rho (up, down):  6.070E-02 0.000E+00

     total cpu time spent up to now is      443.2 secs

     total energy              =     -64.95755148 Ry
     estimated scf accuracy    <       0.00081897 Ry

     iteration # 11     ecut=    60.00 Ry     beta= 0.70
     Davidson diagonalization with overlap
     ethr =  4.91E-06,  avg # of iterations =  2.0

     negative rho (up, down):  4.191E-02 0.000E+00

     total cpu time spent up to now is      478.3 secs

     total energy              =     -64.95704723 Ry
     estimated scf accuracy    <       0.00167903 Ry

     iteration # 12     ecut=    60.00 Ry     beta= 0.70
     Davidson diagonalization with overlap
     ethr =  4.91E-06,  avg # of iterations =  8.0

     negative rho (up, down):  3.668E-02 0.000E+00

     total cpu time spent up to now is      517.3 secs

     total energy              =     -64.95714033 Ry
     estimated scf accuracy    <       0.00040220 Ry

     iteration # 13     ecut=    60.00 Ry     beta= 0.70
     Davidson diagonalization with overlap
     ethr =  3.09E-06,  avg # of iterations =  2.0

     negative rho (up, down):  2.687E-02 0.000E+00

     total cpu time spent up to now is      552.3 secs

     total energy              =     -64.95715422 Ry
     estimated scf accuracy    <       0.00003019 Ry

     iteration # 14     ecut=    60.00 Ry     beta= 0.70
     Davidson diagonalization with overlap
     ethr =  2.32E-07,  avg # of iterations =  8.0

     negative rho (up, down):  2.442E-02 0.000E+00

     total cpu time spent up to now is      590.4 secs

     total energy              =     -64.95715965 Ry
     estimated scf accuracy    <       0.00001201 Ry

     iteration # 15     ecut=    60.00 Ry     beta= 0.70
     Davidson diagonalization with overlap
     ethr =  9.24E-08,  avg # of iterations =  1.0

     negative rho (up, down):  2.191E-02 0.000E+00

     total cpu time spent up to now is      625.0 secs

     total energy              =     -64.95716600 Ry
     estimated scf accuracy    <       0.00000569 Ry

     iteration # 16     ecut=    60.00 Ry     beta= 0.70
     Davidson diagonalization with overlap
     c_bands:  2 eigenvalues not converged
     ethr =  4.38E-08,  avg # of iterations = 20.0

     negative rho (up, down):  2.051E-02 0.000E+00

     total cpu time spent up to now is      665.3 secs

     total energy              =     -64.95717239 Ry
     estimated scf accuracy    <       0.00000206 Ry

     iteration # 17     ecut=    60.00 Ry     beta= 0.70
     Davidson diagonalization with overlap
     ethr =  1.58E-08,  avg # of iterations = 11.0

     negative rho (up, down):  1.983E-02 0.000E+00

     total cpu time spent up to now is      694.1 secs

     End of self-consistent calculation

          k = 0.0000 0.0000 0.0000 (266152 PWs)   bands (ev):

   -25.6362 -16.9692 -11.7123 -11.6894 -10.7309  -6.8203  -6.8192  -1.0122
    -0.2825  -0.2357  -0.1855

     the Fermi energy is    -6.7873 ev

!    total energy              =     -64.95717388 Ry

     total all-electron energy =      -231.568153 Ry
     estimated scf accuracy    <       0.00000072 Ry
     smearing contrib. (-TS)   =      -0.00449371 Ry
     internal energy E=F+TS    =     -64.95268017 Ry

     The total energy is F=E-TS. E is the sum of the following terms:
     one-electron contribution =    -131.09889883 Ry
     hartree contribution      =      67.85340272 Ry
     xc contribution           =     -14.63528881 Ry
     ewald contribution        =      29.61551935 Ry
     one-center paw contrib.   =     -16.68741460 Ry

     convergence has been achieved in  17 iterations

     negative rho (up, down):  1.983E-02 0.000E+00

     Forces acting on atoms (cartesian axes, Ry/au):

     atom    1 type  1   force =     0.00049655   -0.00114168    0.00251647
     atom    2 type  2   force =    -0.00168387   -0.00236995    0.00166972
     atom    3 type  3   force =     0.00088931   -0.00032208   -0.00003124
     atom    4 type  3   force =    -0.00043118   -0.00036259   -0.00039601
     atom    5 type  3   force =     0.00072919    0.00419629   -0.00375894

     Total force =     0.007264     Total SCF correction =     0.000923
     SCF correction compared to forces is large: reduce conv_thr to get better values

     negative rho (up, down):  1.983E-02 0.000E+00

     negative rho (up, down):  1.983E-02 0.000E+00

     negative rho (up, down):  1.983E-02 0.000E+00

     negative rho (up, down):  1.983E-02 0.000E+00

     negative rho (up, down):  1.983E-02 0.000E+00

     negative rho (up, down):  1.983E-02 0.000E+00

     negative rho (up, down):  1.983E-02 0.000E+00

     negative rho (up, down):  1.983E-02 0.000E+00

     negative rho (up, down):  1.983E-02 0.000E+00

     negative rho (up, down):  1.983E-02 0.000E+00

     negative rho (up, down):  1.983E-02 0.000E+00

     negative rho (up, down):  1.983E-02 0.000E+00

     negative rho (up, down):  1.983E-02 0.000E+00

     negative rho (up, down):  1.983E-02 0.000E+00

     negative rho (up, down):  1.983E-02 0.000E+00

     negative rho (up, down):  1.983E-02 0.000E+00

     negative rho (up, down):  1.983E-02 0.000E+00

     negative rho (up, down):  1.983E-02 0.000E+00

     negative rho (up, down):  1.983E-02 0.000E+00

     negative rho (up, down):  1.983E-02 0.000E+00

     negative rho (up, down):  1.983E-02 0.000E+00

     negative rho (up, down):  1.983E-02 0.000E+00

     negative rho (up, down):  1.983E-02 0.000E+00

     negative rho (up, down):  1.983E-02 0.000E+00

     negative rho (up, down):  1.983E-02 0.000E+00

     negative rho (up, down):  1.983E-02 0.000E+00

     negative rho (up, down):  1.983E-02 0.000E+00

     negative rho (up, down):  1.983E-02 0.000E+00

     negative rho (up, down):  1.983E-02 0.000E+00

     negative rho (up, down):  1.983E-02 0.000E+00

     negative rho (up, down):  1.983E-02 0.000E+00

     negative rho (up, down):  1.983E-02 0.000E+00

     negative rho (up, down):  1.983E-02 0.000E+00

     negative rho (up, down):  1.983E-02 0.000E+00
 BEEFens 2000 ensemble energies
             -0.109588375850923E+01
             -0.357904017810795E-01
             -0.225830547803844E+00
              0.753560606986168E+00
             -0.359614419376507E+00
             -0.268358394062328E+00
             -0.801637317297687E+00
             -0.165876135253673E+01
             -0.598207803813943E+00
             -0.648058693468858E+00
             -0.607127713882211E+00
              0.885351367478439E-01
              0.530897786206181E-01
             -0.665653536403248E-01
              0.672178177346310E-01
              0.800457976028550E+00
             -0.346389144871666E+00
             -0.180735646852962E+00
              0.401905689704614E+00
             -0.188499215736319E+01
              0.954602480159068E+00
             -0.330902275954642E+00
             -0.110176774685387E+00
             -0.156677146449778E+00
              0.386831112380079E-01
             -0.969158672922559E-01
              0.150854581727780E+01
             -0.372573464424441E+00
             -0.139997070016763E+00
             -0.949816431760843E+00
              0.118730228992494E+01
             -0.868395016670158E-01
             -0.711825372860391E+00
              0.313824214987535E+00
             -0.506472165200567E-01
              0.480428216165099E+00
              0.236538767185746E-01
              0.322804030794854E-02
              0.627173107002147E+00
             -0.171274951485623E+01
              0.938299806355403E+00
              0.197404285475232E+00
             -0.198655538490265E+00
             -0.510775110307451E+00
              0.206033869937043E+00
             -0.295323293158948E+00
              0.860929258881063E+00
              0.602793541995569E+00
             -0.335431764411098E+00
             -0.544472046244623E+00
             -0.519117650589761E+00
             -0.632304156357250E+00
              0.368628279531039E+00
             -0.897742844987382E+00
              0.272096044048327E+00
              0.103526838832263E+01
              0.126799207573684E+01
              0.547515163118784E+00
              0.291819699086359E+00
              0.543591916805314E+00
              0.155092371771849E+01
              0.297711409127000E+00
             -0.942659836502657E+00
             -0.168440455469208E+00
             -0.502658080371374E+00
              0.106575915914616E+01
             -0.124578882006553E+01
             -0.100808211776470E+01
             -0.563928367278586E+00
             -0.306650507547680E+00
             -0.676457629257776E+00
              0.471719625345999E+00
              0.230885590824053E+00
              0.267279183357247E+00
             -0.653696172777194E+00
             -0.606110798239707E+00
             -0.992323911238457E+00
              0.552181368691059E+00
             -0.579167427772585E+00
              0.532120167762898E+00
             -0.132205531951174E+00
             -0.491043790219404E+00
             -0.874436283905550E+00
             -0.257909723109037E+00
             -0.286987757086969E+00
             -0.260306737560033E+00
              0.660827340310067E+00
              0.131023083050258E+01
             -0.770238408435813E+00
             -0.135993551221459E+01
             -0.312852304811064E+00
              0.186577704258002E+01
             -0.947250936336718E+00
              0.525662635145117E+00
             -0.191300852268476E+00
             -0.102242412415246E+01
              0.474156082854717E+00
              0.525328021478685E+00
             -0.247788343992333E+00
              0.487750460104488E+00
             -0.432726884595906E+00
             -0.102888512236815E+01
              0.170589922110602E+01
              0.773183281244092E+00
              0.370848178946154E+00
              0.213139383231615E+00
              0.379573770697585E+00
              0.138899550322420E+01
             -0.454390130883644E+00
              0.427984750767716E-01
             -0.236467620867498E+01
              0.316537417373153E+00
             -0.113413955211191E+01
              0.210959800547919E+00
              0.366129946145143E+00
             -0.622333014728415E+00
             -0.859858909233273E+00
              0.508632308260424E-01
             -0.522529988063052E+00
              0.748514608597104E+00
             -0.764866909935631E+00
             -0.137904561491479E+00
             -0.655706288855756E+00
             -0.555861738434649E-01
              0.701642320487927E-01
              0.374871928504891E+00
             -0.377975071647541E-02
             -0.110826646853988E+00
              0.112564619074149E+01
              0.156473258037895E+01
              0.840529530035637E+00
              0.112592741228737E+01
             -0.231568771407060E+00
              0.143706132362258E+00
              0.879972681042831E+00
              0.729108771650098E-01
             -0.129562431310568E+01
             -0.745880560266593E+00
             -0.830021108274289E+00
             -0.501984926252251E+00
              0.430976759537124E+00
             -0.207118944125712E+01
             -0.206081835791228E+00
              0.785664175240337E+00
             -0.693736497196516E+00
             -0.503595334449550E+00
              0.970382593563411E+00
              0.838629854620342E+00
             -0.482499918584758E+00
              0.541519682905300E+00
             -0.424164342955924E+00
              0.647711763357677E+00
              0.128262170661125E+00
              0.188988001279944E+00
             -0.140198097027154E+01
             -0.818060985871152E+00
             -0.151250072493754E+00
             -0.546953412104813E-01
             -0.721476860314635E+00
              0.188745162530798E+01
             -0.198436863993766E+00
             -0.460726865844770E+00
              0.673537382611121E+00
             -0.764439575646087E+00
             -0.638260405940009E+00
              0.547716165909041E+00
              0.200723529615343E+00
              0.173350666465177E+00
              0.264044754393705E+00
             -0.181805786757979E+00
              0.173123240106581E+00
              0.995772264334910E+00
             -0.466108631952560E+00
              0.371417660695434E+00
              0.151136355939661E+01
              0.531581149354229E+00
             -0.679184972089395E-01
             -0.344283595157012E+00
              0.263748464702923E+01
             -0.421001940932528E+00
              0.666588933513554E+00
              0.519440468554946E+00
              0.481065453739068E+00
              0.158775522864443E+01
              0.785771660509885E+00
             -0.912377301532518E-01
              0.419123762669498E+00
              0.883955620151708E+00
              0.655754334933304E+00
             -0.103935686469405E+01
              0.160631997505194E+01
             -0.146711433158336E+01
             -0.193120894310102E+00
              0.958520000469953E+00
              0.273357516102783E+00
              0.887328515299384E-01
              0.475395459847653E+00
              0.269802406081256E+00
              0.552505181517086E+00
             -0.106339966274644E+01
              0.611051651625427E-01
             -0.395644624780893E+00
             -0.101185900279752E+00
             -0.449745644166217E-01
             -0.217606744905254E+00
             -0.108922225197234E+00
              0.141885636054570E+01
             -0.824204203381036E-01
             -0.495537732948514E+00
             -0.247320554305662E-01
              0.240657409703474E+00
             -0.109062277562003E+01
             -0.925895426787745E+00
             -0.574062879739920E+00
             -0.107042495666267E+01
             -0.322388976757042E+00
             -0.686375162896161E+00
              0.312228770906623E+00
              0.276347312208991E-01
             -0.218917198270439E+00
             -0.139465216965868E+00
              0.873795210656589E-01
             -0.251720751680260E+00
              0.110125189074176E+01
             -0.148719249369676E+01
             -0.220846781490196E+00
             -0.238089218629243E+00
              0.265465055574359E+00
              0.357458718466666E+00
             -0.870450047579151E+00
             -0.211583838287513E+00
              0.761057691795104E+00
             -0.343689125059077E+00
              0.224342160067128E+00
              0.581898350674383E+00
             -0.911872005836845E-02
              0.196525816709507E+01
             -0.196506527720811E+00
             -0.598830622336552E+00
              0.475630101325297E-02
             -0.479396571535525E+00
              0.918438337327963E+00
             -0.815117057942073E+00
              0.235785466814979E+00
              0.852859630333905E+00
             -0.223915125416657E+00
              0.200542401442347E+01
              0.216920864371332E+01
             -0.120955452276760E+01
              0.975472585325588E+00
              0.392190536860540E+00
             -0.951906691763586E+00
              0.311109182180743E+00
              0.720785939034304E+00
              0.789527238742694E+00
              0.834997029038687E-01
              0.303014427511696E+00
              0.126667188513474E+01
             -0.391520197504664E+00
              0.154387704860364E+00
              0.115144849139350E+01
             -0.616381182260996E+00
             -0.403469737237527E+00
              0.100579979265280E+01
              0.525837436052106E+00
              0.131483776745499E+01
              0.572702275418029E+00
              0.226200201642316E+00
              0.420327499047739E+00
              0.725319931220821E+00
             -0.880524478740553E+00
              0.120142412904364E+00
              0.451073127367912E+00
              0.179043094853601E+00
              0.410091201611061E+00
             -0.105629848309001E+01
              0.553693723132104E+00
             -0.738248337718552E+00
             -0.527082597540909E+00
              0.321644902426083E+00
             -0.155098149957159E+00
              0.101543742199258E+01
             -0.259186238984078E+00
              0.491791489689488E+00
              0.508945169929524E+00
              0.131767307528945E+01
              0.893734421423324E+00
              0.874966929977567E+00
             -0.643423302732415E-01
             -0.185700511501369E+00
             -0.504805453671072E+00
              0.139049047281967E+01
              0.140924906697910E+01
              0.664252141448930E+00
             -0.478557039750083E+00
              0.843414220600258E+00
             -0.124252459484806E-01
              0.301994629624260E+00
              0.118018654409289E+01
             -0.449810110484461E-01
             -0.176591964163655E+00
             -0.369934978163963E+00
             -0.103416224816304E+01
              0.164334630317284E+01
              0.857031487559784E+00
             -0.109788080116158E+01
             -0.363378228629421E+00
              0.427243159911008E+00
             -0.187093769236361E+00
              0.111488800867505E+01
              0.267823647652720E+00
              0.138240390456441E+01
              0.505049401970789E+00
             -0.405329861910102E+00
              0.316063254488244E+00
             -0.119474878941932E+00
             -0.438072617623246E+00
              0.291144934935280E+00
              0.284868987166565E+00
              0.152904062805144E+01
              0.129894253452926E+01
              0.970908470723939E+00
              0.115862527675847E+01
              0.115623479533420E+00
             -0.442267950948418E+00
              0.225493358929595E+00
             -0.571368516503023E+00
             -0.955877092431940E+00
             -0.970000787149688E+00
             -0.544276552070636E+00
             -0.184822239268292E+01
             -0.626060784676838E+00
             -0.147386144627678E+01
              0.344029239032322E+00
             -0.771828571444260E+00
              0.859088413471258E+00
             -0.166888530966593E+01
             -0.506432829617398E+00
              0.679347852082736E+00
              0.373011641277932E+00
             -0.153531506557723E+01
              0.916881062405441E+00
             -0.484650463693528E+00
              0.942295422067184E+00
             -0.479197621281374E+00
             -0.133420342968935E+01
              0.303295227984979E+00
             -0.111839168343214E+01
             -0.727060248487126E-01
             -0.189513142206471E-01
              0.715072481229436E+00
              0.214328383531651E+01
             -0.738999992494376E+00
             -0.643991772480033E+00
             -0.110451384252926E+00
             -0.139623438831522E+00
             -0.136604272643341E+01
             -0.974020309324101E+00
              0.861926548785553E+00
             -0.316991445065892E+00
              0.370160962901989E+00
             -0.839814571674209E+00
             -0.261843257877391E+00
             -0.714412580230771E+00
              0.824578501151959E+00
              0.229980197359458E+00
             -0.418656468326422E+00
             -0.294105578277603E+00
              0.221619330834669E+00
             -0.133668688722401E+00
              0.683963687132541E+00
             -0.455707984454795E+00
              0.174321846022984E+00
              0.571240192793689E+00
              0.223352472054330E+00
             -0.394644476748182E+00
              0.264907257652211E+01
              0.100375473674854E+01
              0.166038260614742E+00
              0.111029044789271E+00
             -0.103091901203451E+01
              0.561436886240737E+00
             -0.132438085653801E+01
             -0.578973808257137E+00
             -0.102064238459385E+01
             -0.307054433058135E+00
              0.100436784967371E+01
             -0.987668555938446E+00
              0.438249092528538E+00
             -0.691331475771833E-01
              0.269801506212062E-01
             -0.542462990688421E+00
             -0.709222512599197E+00
             -0.101429428641882E+00
             -0.584306636705414E+00
             -0.389678463547710E+00
             -0.673260264647598E+00
             -0.934950233408311E-01
             -0.543126750683345E+00
             -0.832968989095985E+00
              0.376569895967139E+00
             -0.218318604279512E+00
              0.397906210886054E+00
              0.152733122379005E+00
             -0.128343809638230E+01
             -0.875084996369493E+00
             -0.841833009422750E+00
              0.555974004578928E+00
             -0.102984003387614E+00
             -0.105861288964432E+01
              0.964208414999364E+00
             -0.728586468850299E+00
              0.991345618755575E+00
             -0.523030060956148E+00
             -0.836521656103402E+00
              0.435401282923511E+00
             -0.123991071257782E+01
             -0.549413221286718E+00
              0.101527991365968E+01
              0.350236604271293E+00
             -0.721482121583982E+00
              0.948286879537417E+00
             -0.275379377902391E+00
             -0.624016106716322E+00
             -0.515666668687300E+00
             -0.893556501766737E+00
              0.430034641025335E+00
             -0.149046147770713E+01
             -0.131844805452252E+01
             -0.124467353673747E+00
             -0.493283767363216E+00
             -0.103003328721045E+01
              0.130042637996568E+01
              0.234724363123738E+01
             -0.385134724707774E+00
             -0.553473992586966E-01
             -0.104241103302723E+01
              0.112730776926494E+01
              0.369317839567603E+00
             -0.339637345979609E+00
             -0.625748303477042E+00
              0.244981220219373E+00
             -0.102579105596690E+01
             -0.191145465627217E+00
             -0.148415993421972E+01
              0.571281154583591E+00
              0.209372009721178E+00
             -0.891187214495037E-01
             -0.187435107074766E+00
             -0.698073259591721E+00
             -0.217483737320837E+00
              0.232478560403630E+01
             -0.267526748901375E+00
             -0.819176225468030E+00
             -0.117659276581516E+01
              0.236372090564940E+00
             -0.643432538218227E+00
              0.157201236373705E+00
              0.564378433164569E+00
              0.831956395370730E-01
              0.611406804644452E+00
              0.305846102495470E+00
              0.100899764507322E+01
              0.438322425164763E+00
             -0.615571837007577E+00
              0.900439779275904E+00
              0.592657982023653E+00
              0.217038981919058E+00
              0.640724258963113E+00
             -0.517768783317801E+00
              0.122289751556537E+01
              0.429134179024184E+00
             -0.587891141399089E+00
             -0.996882309148479E-01
             -0.279391027525840E+00
              0.276065850651132E+00
             -0.448311877713066E+00
             -0.185854718549317E+00
             -0.215437045094623E+00
              0.138792774648949E+01
              0.992567516719423E+00
             -0.112026509227464E+01
             -0.126938032618964E+00
             -0.868157878846350E+00
             -0.232307734195134E+00
             -0.366682353141522E+00
              0.183527014095176E+00
             -0.611891011654261E-01
             -0.480119006283883E+00
              0.272436751175660E+00
             -0.157718601217395E+00
             -0.134906539604112E+00
              0.149063887262951E+01
              0.265711864106433E+00
             -0.141686431859211E+01
             -0.670470435362086E+00
              0.162594296127452E+01
              0.399944460227491E+00
             -0.142992126628316E+00
              0.187834971516427E+01
             -0.302190916899624E+00
             -0.134510160545481E+00
             -0.198886773244967E+00
              0.267160529009931E+00
              0.555071202366857E+00
              0.492261507135754E-01
              0.489148533903065E+00
             -0.201913508804942E+00
             -0.664575720023665E+00
             -0.667034817978695E+00
             -0.832331470636582E+00
              0.709215150175305E+00
              0.255291346348356E+00
              0.647280557279202E+00
              0.274770403559446E+00
              0.153696718137600E+01
              0.337551676675953E+00
             -0.131422888540786E+01
             -0.563102465495028E+00
              0.676805926700264E-01
             -0.481009660173519E+00
              0.108393307969663E+01
             -0.268911579678154E+00
              0.292648624343245E+00
              0.935621515262848E+00
             -0.137880409871186E+01
              0.253008449283460E+01
              0.332479172700312E+00
              0.412836484007409E+00
              0.645636957672499E+00
              0.679051636159400E-01
             -0.468178055679198E-01
              0.559375392165662E+00
             -0.593593240695795E+00
              0.146966898206910E+01
              0.128276450541877E+01
             -0.658459953224900E+00
              0.296197986958879E+00
              0.123394631223032E+01
             -0.374304569759714E+00
              0.342149352289232E+00
              0.582933891485922E+00
              0.723671091305472E+00
             -0.127355918051945E+01
             -0.111947463510816E+00
             -0.472120077717453E+00
             -0.109838092702925E+00
             -0.115720713791848E+00
              0.986338104068789E-01
             -0.245068685469429E+00
             -0.505096657164806E+00
              0.262788318551489E+00
              0.119045952393208E+00
              0.912543904219388E+00
             -0.782041192258312E+00
              0.757559634506160E+00
              0.862015363899920E+00
             -0.178467699556135E+00
              0.129852335725860E+01
             -0.115184892871586E+01
             -0.177001120992484E+01
             -0.123291793388730E+00
             -0.111499519317855E+00
              0.150304886973505E-01
              0.132281973637842E+01
             -0.379255217670007E-01
              0.722038972040748E+00
              0.998995600286510E+00
              0.672479793465685E+00
             -0.915535888312391E-01
              0.103651306710674E+01
             -0.287241428330677E+00
             -0.656141557026501E+00
             -0.645633491918446E+00
              0.158869588956722E+00
              0.623041548055427E+00
             -0.596371107422820E-01
              0.596478275010066E+00
              0.426449361616088E-02
              0.966549398356325E+00
              0.296680220588066E+00
              0.132099204817800E+00
             -0.128101453452345E-02
              0.511271687013508E+00
              0.699458979333371E+00
              0.272827637623983E+00
             -0.558730204547668E-01
             -0.922497751696647E+00
              0.509681505197594E+00
              0.353424620686146E+00
              0.585945796273440E+00
              0.521496605792537E+00
              0.618087808287284E+00
             -0.150560714993369E+00
              0.562497128572605E+00
             -0.502839186543149E+00
             -0.348823386437953E-01
             -0.913655293208250E+00
             -0.598036138900865E+00
              0.739453098966232E+00
             -0.152006543821493E+01
              0.429207763836887E+00
              0.243853170327125E+00
              0.147735259952255E+01
             -0.261666800893747E+00
              0.557343330713044E+00
             -0.204875678506946E+00
             -0.841555617674577E+00
             -0.115710939718416E+01
             -0.241990199469030E+00
             -0.155899408215167E+01
              0.167873379743889E+00
             -0.367048507540424E+00
              0.554989037211951E+00
              0.402901020765595E+00
             -0.478827516744266E+00
             -0.503583907288673E+00
              0.736610031524248E+00
             -0.962830472669200E+00
             -0.228746795504031E+00
             -0.280462838217432E+00
              0.439739199440055E+00
              0.507725124260467E-01
              0.704914843492768E-01
             -0.269060457618465E+00
              0.923105358423506E+00
             -0.985859785700889E+00
              0.132589743186026E+00
              0.102505636550844E+01
             -0.609199391044560E+00
              0.576581983941855E-01
              0.433506315067866E-02
             -0.113763316393514E+01
             -0.690207437554313E+00
             -0.460195590244857E-01
              0.523040178268337E+00
              0.579090773338369E+00
              0.848631984995780E-01
             -0.188946175411555E+00
              0.303253605667154E+00
             -0.706934248754560E+00
             -0.668194092584429E-01
             -0.902130409984936E+00
             -0.450477592558832E+00
              0.854668611086031E+00
             -0.523517823480537E+00
              0.118359302134429E+01
             -0.386947823809291E+00
              0.584157853299767E+00
              0.438496991667936E+00
             -0.102621267547373E+01
             -0.452638035698291E+00
              0.155443478891260E+00
             -0.695584495488665E+00
             -0.708033327890987E+00
             -0.150961725402718E+01
             -0.960216517983707E+00
             -0.852169055583231E+00
             -0.771562462785617E+00
              0.112874793161795E-01
              0.400666682527336E+00
              0.171877072545319E+00
              0.449040865413895E+00
             -0.100622679178222E+01
              0.217928081977653E+00
              0.466275803496979E+00
             -0.117959467526684E+01
             -0.992633922694355E+00
             -0.662864388169499E+00
             -0.537603172743205E+00
              0.261853311855737E+00
             -0.390586069767433E-01
             -0.731423151540928E+00
              0.507167877107029E+00
             -0.379143278920670E+00
              0.900760076319202E+00
             -0.150196085841776E+01
              0.107293737245264E+01
             -0.168087193840029E+00
             -0.751742117903983E+00
             -0.477420502110181E+00
             -0.176813077242832E-01
              0.822551897268241E+00
             -0.120112465758374E+01
             -0.221933252070096E+00
             -0.286063515164959E+00
              0.724661204503428E+00
              0.137096689563416E+01
             -0.170921157245389E+01
              0.157882623352905E+01
              0.681598047576151E+00
             -0.130583518829587E+01
             -0.553149041604692E+00
              0.134240270733396E+01
              0.983050734516507E+00
             -0.350382796626732E+00
             -0.121787244554807E+00
              0.298977284370118E+00
              0.131247498419766E+01
             -0.100783793732461E+01
              0.238034930309452E+00
             -0.121845855068034E+00
              0.476864001988963E+00
             -0.121112502083014E+01
             -0.532370620924018E-01
             -0.481103869577071E+00
              0.825462813480031E+00
              0.665349171453305E+00
             -0.152023447249461E+01
             -0.818292324054020E+00
             -0.363835402850800E+00
             -0.724061752538236E+00
             -0.222030313141939E+00
             -0.328783821174807E+00
              0.781756387533964E+00
              0.747788943179458E+00
             -0.505147578279921E-01
             -0.740621051643639E+00
             -0.146614676807529E+01
              0.853301158321962E+00
             -0.802838448935751E+00
             -0.619170727859441E+00
              0.129481389549996E+00
             -0.622382398426873E+00
             -0.697281526611254E+00
             -0.523924525946038E+00
             -0.853341355305119E+00
             -0.413059710756853E+00
             -0.850023652920441E+00
              0.959604043254884E+00
              0.103145252158365E+01
             -0.165907807238661E+00
             -0.368455652393553E+00
              0.416779012074624E-01
              0.719363449630988E+00
             -0.147200033668634E+01
             -0.403808455303102E+00
              0.868855123273006E+00
              0.119960647739647E+01
             -0.197288324135465E+00
              0.187750176855275E+00
              0.894932973893704E+00
              0.262196785115858E+00
              0.449685751789541E-02
             -0.663355624185378E+00
              0.261942968765968E+00
             -0.565337698840048E+00
             -0.173258185613355E+00
             -0.352276187901372E+00
             -0.255664363920174E+00
              0.394161970003154E+00
              0.136258987999296E+01
             -0.115062729821008E+00
              0.360686425492909E-01
             -0.156916256772170E+01
             -0.311137267882499E+00
             -0.621353409529624E+00
              0.956226681274730E-02
             -0.780499998858330E+00
              0.150923996886811E+01
              0.149223085309630E+01
              0.322488154747430E+00
             -0.378023311722379E+00
              0.295696261293223E+00
              0.376617583728324E+00
             -0.787925413441789E+00
             -0.146281971845003E+00
              0.310429597953584E+00
              0.217403293591876E+00
              0.876523295394413E+00
              0.691388082115436E+00
             -0.363969774936623E+00
              0.397898409335600E+00
             -0.166804132357493E+01
             -0.487871757756968E-01
              0.153928490705948E+01
              0.309787600500542E+00
             -0.299823950795908E-01
              0.467081430534115E+00
             -0.401951666201094E+00
              0.152456978275563E+01
             -0.326082995694885E+00
              0.135289550982963E+01
              0.648163728641091E+00
             -0.758841345969831E+00
              0.566195247442211E+00
             -0.483373273901133E+00
             -0.115767535054789E+01
             -0.133257943700936E+00
             -0.934595509262400E+00
             -0.905620839576427E+00
             -0.288535804089145E-01
              0.621313336204954E+00
             -0.212534925651553E+00
             -0.547726591399044E+00
              0.124191888282271E+00
             -0.114030261110145E+01
             -0.688599658937294E-01
             -0.149297163035333E+01
              0.926804349779758E+00
             -0.713489824565048E-01
             -0.836978035485485E+00
             -0.306499223783881E+00
              0.296797727170654E+00
             -0.627944432243196E+00
             -0.761394025553463E+00
              0.153802411313077E+01
             -0.467455998594980E+00
             -0.680205087134571E+00
              0.534363849668564E+00
             -0.343203003791641E+00
              0.947300136956439E+00
             -0.215875821596168E-01
              0.599719058460728E-01
              0.184846198375667E+01
             -0.183181955661496E+00
             -0.651120935908337E+00
             -0.786976104983223E+00
             -0.903255205747401E+00
             -0.631146648631695E+00
              0.501081151733004E+00
              0.499410988311884E+00
              0.479848388944839E+00
              0.127759723895522E+01
              0.765081120873603E-01
              0.374562211981322E+00
             -0.102204618671509E+01
              0.254352601593988E-01
             -0.307101572511828E+00
             -0.475297750826334E+00
             -0.770780673594373E-01
              0.568341734715723E+00
              0.653067457405269E+00
             -0.361131532840079E-01
              0.198732297408504E+00
              0.486058240192068E+00
              0.615936527827242E+00
             -0.388551252984483E+00
             -0.165880528879729E+00
              0.139090811731180E-01
             -0.449592500609342E+00
             -0.843316011998816E-01
             -0.637754313262580E+00
              0.132816692451486E+01
              0.105249986066343E+01
             -0.297684359373950E+00
              0.267033748948849E+00
             -0.899930393737561E-01
             -0.507938613531656E+00
              0.627262694157587E+00
             -0.157245993881176E+00
              0.616189319196170E+00
             -0.832914075442285E+00
              0.304348720935979E+00
             -0.139126163411740E+00
             -0.926534419831032E+00
             -0.417608381258230E+00
              0.411674697992640E+00
             -0.166654934996509E+01
              0.654639631462778E+00
              0.807493845361154E+00
             -0.161554193020609E+00
             -0.118716156752803E+00
             -0.576363396920065E-01
              0.453196067168983E+00
             -0.577808764159934E+00
              0.543240800999333E+00
              0.546209570514187E+00
             -0.160908704272846E+01
             -0.615029592573327E+00
              0.409897446380045E+00
             -0.212853652235324E+00
              0.805336676341267E+00
             -0.105434891086086E+01
             -0.138568510240281E+00
             -0.683684074745366E+00
             -0.221645745901788E+01
              0.135136733038173E+01
             -0.103385560712057E+01
             -0.113281494109537E+01
              0.114179930005150E+00
              0.221177206152193E+01
              0.105659044364759E+00
             -0.529669829838912E+00
             -0.155752621745968E-01
             -0.736221709716469E-01
             -0.149541174331903E+01
             -0.964013501646731E+00
              0.146105051064668E+01
             -0.189620865730208E+00
             -0.630894549387759E+00
              0.858989436277561E+00
             -0.563662416194941E+00
              0.588386540032408E+00
              0.843578469079890E+00
             -0.938829977109942E+00
             -0.478545717658318E+00
             -0.547058370212153E+00
             -0.278654159335424E+00
             -0.348486772207641E+00
             -0.287019057561876E+00
              0.325185275672805E+00
             -0.600373862474813E+00
              0.486609221014376E+00
              0.963194895445187E+00
             -0.146964725554775E+00
             -0.337916595500337E+00
              0.250653882717376E+00
              0.939590619073405E+00
              0.927968479642053E+00
              0.143494381891244E+00
             -0.157480393782737E+00
             -0.170788193388454E+00
             -0.913139399133215E+00
              0.692705194474742E+00
             -0.435029189976755E+00
              0.373525601387909E+00
             -0.236652202831234E+00
              0.459959309986717E+00
              0.292063748910470E+00
             -0.140368395408883E+01
             -0.450474200166136E+00
             -0.134632142955137E+01
             -0.668642289967664E+00
              0.855986097874555E-01
             -0.327527967968914E+00
              0.588624337796611E+00
             -0.483569060028947E+00
              0.493698591432257E-01
              0.128291346226884E+00
              0.123606481925552E+01
              0.636180822737924E+00
             -0.534434019350112E+00
             -0.242602282048874E-01
              0.254805646898626E+00
              0.636968279440742E+00
             -0.399579710291142E-02
              0.959199639526067E+00
              0.484246865497404E+00
              0.154026622976348E+01
              0.719648523572132E-01
              0.109420301788610E+01
             -0.462786657593472E+00
             -0.678990016157318E+00
              0.666659610338867E-01
              0.168003750158812E+00
              0.414044616873743E+00
             -0.301368117656724E+00
             -0.206323891937170E+00
              0.394340667355988E+00
             -0.807162290288052E+00
             -0.998915731116367E+00
              0.134652071895203E+01
             -0.111388241170134E+00
             -0.661491043632982E+00
             -0.843116948183698E-01
             -0.241058584779044E+00
              0.711103491786316E+00
              0.623393336623293E+00
             -0.345380221538800E+00
             -0.112958635382792E-01
             -0.453008220271879E+00
             -0.604516259635334E+00
             -0.427966213435059E+00
             -0.167112419527851E+01
             -0.347416950458568E-02
             -0.112921848322263E+01
             -0.100265882244901E+01
             -0.666563450657257E+00
              0.362748883528591E+00
             -0.668528183227448E+00
              0.395591295222414E+00
             -0.108805970965623E+01
             -0.174860291690138E-02
             -0.721592873230532E+00
              0.118474483018979E+00
              0.137174022047226E+00
              0.582566586909415E+00
             -0.350962349455572E+00
             -0.325865978805907E+00
              0.528289536338746E+00
              0.103298391004824E+01
              0.550878388223587E+00
              0.178765443862485E+00
             -0.126242265612447E+01
             -0.256048873175305E+00
             -0.480718087490006E+00
             -0.106628071259690E+01
              0.744798762540208E+00
             -0.586946185521770E+00
             -0.124809963733209E+00
             -0.459287858763670E+00
             -0.171627204570585E+01
              0.955034706809361E+00
             -0.310773932243142E+00
              0.671689335426660E+00
             -0.127205570668622E+01
              0.111997715603714E+01
              0.949849527713083E-01
             -0.460350135662824E+00
              0.150307001189051E+00
             -0.363120078170366E+00
             -0.111105442283381E+01
              0.301712781805932E+00
              0.625122155213135E+00
             -0.751099215466766E-02
             -0.591062376658753E+00
             -0.255130410965452E+00
              0.345633135085519E+00
              0.613796695686633E+00
              0.107103855167644E+01
              0.397398170681507E+00
             -0.394399611363204E+00
              0.166710896354856E+01
              0.391355402748529E+00
              0.785356095350304E+00
             -0.274835159141322E+00
              0.509811383934956E+00
              0.382602064464592E+00
             -0.106532228598081E+01
             -0.377036929990499E+00
             -0.683303486317145E+00
             -0.673669425771142E+00
             -0.191169296166972E+00
             -0.170096559799521E+00
             -0.758893015231828E+00
             -0.192325499962312E+01
             -0.467362888240871E+00
              0.253945238166095E+00
              0.985956201660798E-01
              0.240095565133599E+00
              0.719592745451654E+00
              0.212138883605023E+00
              0.538824161431705E+00
             -0.755119110082552E+00
              0.748210789182330E+00
             -0.700895227328132E+00
             -0.117552463790133E+01
              0.329654065213349E+00
             -0.701133328353480E+00
             -0.697216028590690E+00
             -0.273769226894917E+01
             -0.136886823837474E+00
              0.143536848894972E+01
              0.719629746263585E+00
             -0.178931013265419E+00
             -0.174623349724026E+00
              0.700727376129263E+00
              0.109852621923161E+01
             -0.676863636110582E+00
             -0.214173701751983E+00
             -0.606270196265306E+00
             -0.581326103465649E+00
             -0.527459491635796E+00
              0.208966889829246E+00
              0.120936303278965E+01
             -0.112701231573269E+01
             -0.928234642622789E+00
              0.532526811952581E-01
             -0.235548306942797E+00
             -0.309580670352252E+00
             -0.154609036451484E+01
              0.104076985882920E+01
              0.356679703301781E+00
              0.138371228183845E+00
              0.893384931402465E+00
             -0.549680793977612E+00
              0.576738653253813E+00
              0.494422248784361E+00
              0.493791389973897E-01
             -0.140724254026653E+00
              0.163892002777529E+00
             -0.261969053323218E+00
              0.872555269630480E+00
             -0.701810249923120E+00
              0.775588863799983E+00
              0.162133766144626E+00
              0.273641948930132E+00
              0.348280613042064E+00
             -0.139172528599077E+01
              0.156818574430341E+00
             -0.113762852172126E+01
             -0.835479965089056E+00
             -0.826574117564304E+00
             -0.878738730848474E+00
              0.163867434974279E-01
              0.305192206027223E+00
              0.846799563499690E+00
              0.134588773989494E+00
              0.250810947489554E+00
             -0.119944222177148E+01
             -0.483009234897587E+00
              0.558640357821724E+00
             -0.354658632156641E-01
             -0.460257957104377E-01
             -0.163696238229633E+00
              0.618900464377506E+00
             -0.156513654236626E+01
              0.226607601001201E+00
              0.377204166811250E+00
              0.682193646464063E+00
              0.642509911706938E+00
             -0.975041987084842E+00
              0.254506726950440E+00
              0.107543564308223E+00
              0.122709082143157E+00
              0.724389319429779E-01
             -0.348207291908661E+00
             -0.717280648753819E+00
              0.295560057055990E+00
              0.100966601749171E+01
             -0.485106229023149E-01
              0.225810243336541E+00
              0.210451910657602E+00
             -0.519928799178845E+00
             -0.536519420091792E+00
             -0.208736164251834E+01
             -0.669178681389056E+00
             -0.979237608698537E+00
             -0.122868767445622E+00
             -0.115628009635776E+01
              0.130500435740289E+01
             -0.571699035277665E+00
             -0.935771611757486E+00
             -0.270477991827132E+01
              0.115896031480607E+01
              0.251187482684532E+00
              0.117500488158216E+00
             -0.104775927574130E+01
              0.807741684127885E-01
             -0.273450957535293E+00
             -0.539018644745532E+00
              0.133831607038623E+00
              0.552481872059549E+00
              0.964148881870213E-01
             -0.333025747274032E+00
              0.430061806910693E-01
              0.192077706887712E-01
              0.209295751160406E+00
             -0.114390611057300E+01
              0.124612958343395E+01
             -0.710400195998951E+00
             -0.451182440682069E+00
             -0.849488516538971E+00
             -0.183682527208019E+01
              0.894460209638825E-01
             -0.950246850798892E+00
             -0.338147496065383E+00
              0.539391206539640E+00
             -0.446533862473768E+00
             -0.166526434808301E+00
             -0.213541713908397E+00
             -0.376291882341569E+00
              0.466940183101081E-01
              0.887654776056810E+00
             -0.885084760455164E+00
              0.175280220451760E+01
             -0.411115186342122E+00
              0.571509310886933E+00
             -0.270953758241166E+00
              0.215717638293830E+00
             -0.208197698313120E+00
              0.775354180715788E+00
              0.108770352364514E+01
              0.311382362739632E+00
              0.806556865761402E+00
             -0.527352027709338E+00
             -0.107126961024042E+00
             -0.420076105117677E+00
              0.109312348849346E+01
              0.946742486469800E+00
              0.692888278965537E+00
             -0.231434011571913E+00
             -0.448635364511312E+00
              0.416114337428996E+00
             -0.484997383441299E+00
             -0.254973158180132E+00
             -0.108048506634935E+00
             -0.590580579218041E+00
              0.854312500011152E+00
             -0.175620082998348E+00
              0.620346043230146E+00
              0.347948849103296E+00
              0.270647912752487E+00
             -0.587117261601729E+00
              0.461672237030830E+00
             -0.238554683226971E+00
             -0.131667035367916E+00
             -0.205738890661866E-01
             -0.848983387041198E+00
              0.134167005279393E+01
             -0.472664554890272E+00
              0.821165555951442E-02
              0.405890684288791E+00
              0.351437263251321E+00
              0.131353834631556E+01
             -0.373416166095833E+00
              0.129834317023391E+01
              0.115433013898307E+01
             -0.162208936514607E+01
              0.129641427742357E+00
             -0.321054377683234E+00
              0.196458974430910E+00
              0.852747747842240E-01
              0.343464236046287E+00
              0.109552228363600E+01
              0.166806596590076E+01
             -0.127893281897476E+01
              0.131697716401897E+01
             -0.169883547389080E+01
             -0.144559726299474E+01
             -0.240049830548679E+00
              0.208153901432682E-01
              0.133456793685518E+01
              0.581756649161298E+00
             -0.253967827345332E+00
             -0.145904338378353E+01
              0.114969411982146E+01
             -0.723805658755634E+00
              0.200878236754765E-01
             -0.811368273038182E-01
              0.222642740757489E+01
             -0.402013163313292E+00
             -0.180531744659944E+01
              0.521721589298181E+00
             -0.277805595944553E+01
              0.224614010713873E+00
             -0.656987737193782E+00
             -0.297859799274620E+00
             -0.450439407324421E+00
             -0.101502458221921E+01
              0.638023461458259E+00
             -0.611489113638750E+00
             -0.218023709152373E+00
             -0.130573043003345E+01
             -0.773777288502266E-01
             -0.910056487409714E+00
             -0.131743158654696E+01
             -0.187973624027790E+01
              0.152720834790819E+00
             -0.611083449294917E+00
              0.123886360784470E+00
             -0.220926279190468E+00
             -0.142160929504134E+01
             -0.109199881734932E+01
             -0.974341811913909E+00
             -0.979875671130920E+00
              0.900241596586980E+00
              0.123602288057391E+00
             -0.837361776127335E+00
             -0.411170241361555E+00
             -0.465953077394475E+00
              0.696454645095463E+00
             -0.538675326373092E+00
             -0.107727985704545E+00
             -0.510463852134558E+00
             -0.680561417352421E+00
             -0.697814688593343E+00
              0.699652278065723E+00
             -0.222345535841978E+00
             -0.156264104423570E+01
              0.134461899661217E+01
              0.786316206874696E+00
              0.663783742668986E-01
             -0.137173773265456E+01
             -0.128633604071453E+01
              0.115598970666859E+00
              0.264211105143390E-01
             -0.577431752637347E+00
             -0.773936152732113E+00
              0.546475143687347E+00
             -0.944042368120543E-01
              0.464790437766752E+00
              0.818335430222522E+00
              0.611533274551595E+00
              0.441554223295541E+00
              0.378900620873951E+00
             -0.388628949636642E+00
             -0.250496800275616E+00
             -0.311626851013053E+00
             -0.646412729018124E+00
             -0.819200373973978E+00
             -0.105265155973528E+01
             -0.624689383149135E+00
             -0.206016721915936E+00
             -0.130441578268883E+01
             -0.260114225487438E+00
              0.588721699302912E+00
             -0.140203106427916E+01
              0.598533281809655E+00
              0.479737368082240E+00
             -0.122189847328804E+01
             -0.961766334061613E+00
             -0.377391228943591E+00
              0.233115827913586E+00
             -0.706669899204570E+00
              0.128307181660259E+01
              0.113392799096045E+01
             -0.132247621520346E+01
              0.748810969426058E+00
              0.621899319042450E+00
              0.173721600713647E+00
              0.336850922205606E+00
             -0.728441536775167E+00
             -0.265480543925750E+00
              0.970301689477253E-01
              0.342864566550493E+00
              0.722625044801997E+00
             -0.934934303919991E+00
             -0.172853523320923E+00
              0.286430926187148E+00
              0.121441073173855E+00
             -0.577405198177373E+00
              0.320567653195969E+00
             -0.440546445357752E+00
             -0.306541938418881E+00
              0.882706984183912E-03
             -0.105945134623556E+01
             -0.359483504889591E-02
             -0.200330711850714E+00
             -0.252968120494743E+00
              0.226664862953472E+00
             -0.917010407097261E+00
              0.983858857208622E+00
             -0.383968542496508E+00
             -0.228431471721167E+01
             -0.148113528792386E+01
              0.608453591345079E+00
             -0.687222628821006E+00
             -0.364380119511958E+00
             -0.423772785216999E+00
             -0.317860012260700E+00
             -0.177318849939316E+01
             -0.482652837841560E-01
             -0.106797905855111E+01
             -0.560286915928945E+00
              0.366888035694614E+00
              0.133883745020711E+01
              0.651817375067930E-01
              0.407016104379143E-01
              0.102498218558755E+01
             -0.958238179417857E+00
              0.502601875169997E+00
              0.111656017330946E+00
             -0.876875210348620E+00
             -0.486001908082237E+00
              0.345573655648478E+00
              0.458535380067124E-01
              0.272830607423976E+00
              0.240045972960862E+00
             -0.399033918925072E+00
             -0.539581875436596E+00
             -0.856270693963003E+00
              0.847347649301102E+00
             -0.115887648586801E+01
             -0.857173117087671E+00
              0.246445595613634E+00
             -0.146350891132916E+01
              0.380437283249455E+00
              0.100998934758110E+01
             -0.188332244851757E+00
              0.307346979648556E+00
             -0.549649242556571E+00
             -0.372543852980191E+00
              0.178864683336909E+00
              0.621030966402305E+00
             -0.633302989138599E+00
              0.401292520809311E+00
             -0.242886942065189E+00
              0.762713694035577E-01
              0.345182060932971E+00
              0.200327773551328E+00
             -0.194319350656288E+00
             -0.150573348455607E-01
              0.233195579234680E+00
              0.477238363310684E+00
             -0.121064688415383E+01
             -0.955196167135242E-02
              0.919113119038442E+00
             -0.154451230653514E+01
              0.568113884960380E+00
             -0.196779473345247E+01
             -0.185014618468411E+00
             -0.247812348418974E+00
             -0.637731012121296E-01
             -0.201153375829766E+00
             -0.479460647120170E+00
             -0.150924921281941E+00
              0.234720194544332E+00
             -0.416089885945597E+00
              0.193393155900594E+00
              0.154771121548936E+01
             -0.996578203682851E+00
             -0.439827415877078E+00
              0.698131736230694E+00
              0.364328084680110E+00
              0.713481592545785E+00
              0.317568583315263E+00
              0.331931961847626E+00
             -0.252948940044767E+00
             -0.848219766925580E+00
             -0.765884715752509E+00
             -0.552176552770378E+00
              0.819627494676429E-01
             -0.720538241728258E+00
             -0.201847103993835E+00
              0.107871405000296E+00
              0.413681745862903E+00
             -0.118334595620153E+00
              0.100379299650047E+01
             -0.108032188973261E+01
             -0.359677205038507E-01
             -0.129688871071163E+00
              0.533469370646475E+00
             -0.744558577662578E+00
             -0.479747849074744E+00
              0.271176682876288E+00
              0.809078874625538E+00
              0.127182539408059E+01
              0.545000087811273E+00
              0.781085375112246E+00
             -0.436827168771904E+00
              0.108288197538899E+01
              0.108785065674709E+01
             -0.473042574001550E-01
              0.552343209351378E+00
              0.655712933730244E+00
             -0.355653507391297E+00
              0.209311063996729E+00
              0.112660056524992E+01
             -0.383648433897246E+00
             -0.136414461771803E+00
             -0.108043203653823E+01
              0.396140440701365E+00
             -0.234857603515118E+00
              0.359169681267048E+00
              0.466955691151174E-01
             -0.679362546972807E+00
              0.792074571236606E+00
              0.678521306910443E+00
             -0.516981557432530E+00
              0.286288504908844E+00
             -0.100980929968647E+01
             -0.932531401028042E+00
              0.422371959918671E+00
             -0.117349191014340E+01
             -0.578324846675700E+00
              0.397406635139532E-01
              0.146989128879212E+01
             -0.374741796014746E+00
             -0.186787092939753E+00
             -0.326956827687213E+00
              0.193140403113599E+01
              0.321820427005198E+00
             -0.719620343304101E+00
              0.120177985067333E+01
              0.106905175188209E+01
              0.560741379375946E+00
              0.135821915251387E+01
              0.146415460351183E+01
             -0.858480308868480E-01
             -0.506166611231970E+00
             -0.458627905808822E+00
              0.460839816722395E+00
              0.658900613678266E+00
             -0.117497584701848E+00
             -0.405137625754054E+00
             -0.992276372598312E+00
             -0.381166625326435E+00
             -0.796212175355226E+00
              0.564989275568359E+00
              0.292545528359616E+00
              0.102348854983832E+01
              0.208197475267506E+00
             -0.403510734391270E+00
             -0.147276166356096E+00
              0.688910706224947E+00
              0.187067304204078E+00
              0.103170703874309E+01
              0.962500180852524E+00
             -0.163838168379597E+00
             -0.141946271028504E+00
             -0.171897966256354E+01
              0.855165492250584E+00
             -0.274295705657845E-01
              0.967068406530320E+00
             -0.424916410389689E+00
             -0.111973357500735E+01
              0.323664959399662E+00
              0.123359660784798E+01
             -0.435501496654524E+00
              0.114876033839175E+01
             -0.123339714712457E+01
             -0.439069036208080E+00
             -0.145299932532114E+01
              0.303404277531014E+00
              0.108431269125322E+00
              0.122424590829163E+00
             -0.105822010344185E+01
              0.156862830619818E+01
              0.920630038402507E+00
              0.106824322846757E+00
             -0.894027617898107E+00
              0.352835096276287E+00
             -0.343592402684757E+00
             -0.236258827698223E+00
             -0.445111661358593E+00
              0.299402183971524E+00
             -0.263928664453099E+00
             -0.312521906320998E+00
              0.393393280840254E+00
              0.400796887613239E+00
             -0.153425386442084E+01
              0.335189129581893E+00
              0.113017769860872E+01
              0.727006375872183E+00
             -0.236242189978156E+00
             -0.152925698265260E-01
             -0.632987273309125E+00
              0.964918784952813E+00
              0.175799826103067E+00
             -0.628265938675181E-01
             -0.980261682893051E-01
              0.186796741527809E+01
             -0.100100702192111E+00
              0.423864117512453E+00
              0.126277255581375E+01
              0.166332976460638E+01
              0.102618731190292E+01
              0.688203062587577E+00
             -0.107649942665637E+01
             -0.789936559831151E+00
              0.621099084236492E+00
              0.580393876910952E-01
              0.526751135316466E+00
              0.224223994701994E+00
              0.110045011237047E+01
             -0.136171817451122E+01
             -0.840902527807270E+00
             -0.182749298890727E+00
             -0.148700294817613E+01
              0.317691853558143E+00
              0.762885232134028E+00
              0.561206120371782E-01
             -0.356360149238075E+00
              0.363446542853028E+00
              0.233053710742284E+01
              0.531449237263248E+00
              0.297694507665579E+00
             -0.822883805277352E+00
             -0.102092887554052E+01
             -0.239805357162509E+00
              0.482473248940552E+00
             -0.100266664789951E+00
              0.428723370696586E+00
              0.601373771180857E+00
             -0.107202973221374E+01
              0.460407803765605E+00
              0.625997414083455E+00
              0.983429807435604E+00
             -0.169716773263220E+00
              0.688002252534705E-01
             -0.122532107800116E+00
             -0.776186635521859E+00
             -0.125201692855584E+01
              0.131945521889822E+01
             -0.168262427760207E+00
             -0.925725283335326E+00
              0.121619894024310E+00
             -0.510282916948061E+00
              0.147454596144546E+01
             -0.382434252703327E+00
             -0.640898552319186E+00
              0.621001892013115E+00
             -0.257478372109341E+00
              0.791649187071100E+00
              0.116703293752831E-01
              0.160718343518609E+01
              0.878031463240523E+00
              0.175154521123120E+00
             -0.666685333632936E+00
              0.480270906033918E+00
             -0.930786770519362E+00
             -0.877162817026693E-01
              0.110488232774054E+01
             -0.435483350193761E+00
             -0.750789029781815E+00
             -0.382936501517074E+00
              0.890049490837333E+00
              0.207327094487179E+00
             -0.140436060884532E+01
              0.586237089786667E+00
              0.136019850867116E+00
              0.179249030322163E+00
             -0.835034363436920E+00
              0.159127862586408E+00
              0.594274099501999E+00
              0.807850067562988E+00
              0.110024263346655E+01
              0.588583839470542E+00
              0.132811375603044E+00
             -0.931814445605848E+00
             -0.723009093625273E+00
             -0.113546344823877E+01
             -0.223439778035914E+00
              0.586173286418330E+00
             -0.139335330053862E-01
              0.899333688498983E+00
             -0.544875495351739E+00
              0.298044225596326E+00
             -0.371641286518772E+00
             -0.457164403966254E+00
              0.100004268676853E+01
              0.963134378255903E-01
              0.105496049509446E+01
              0.915396189375830E-01
              0.353649515766462E+00
             -0.270838663872184E+00
              0.103136133080894E+01
             -0.257432554324736E+00
             -0.998825542417345E-02
             -0.133880227301165E+01
             -0.132794630884023E+00
              0.119859582451163E+01
              0.112345065037882E+01
              0.414960891729077E+00
             -0.254545263196576E+00
              0.728582771596678E-01
             -0.387786477731760E+00
             -0.291455176751533E+00
              0.152325659365310E+01
              0.114000995638802E+00
             -0.478643612830670E+00
             -0.183554281654166E+01
             -0.766702095223535E+00
             -0.645046140554309E+00
             -0.105802570608471E+01
             -0.101765760042222E+01
             -0.122062374543691E+01
             -0.768331477365975E+00
             -0.500395084747066E+00
             -0.807403064311619E+00
              0.758957611620713E+00
             -0.328727000766325E+00
             -0.150276275523498E+01
              0.718093788659715E+00
             -0.570218922468463E+00
             -0.135695574400769E+01
              0.172667938573703E+01
             -0.426759620713306E+00
              0.272361757652460E+00
              0.663481556656134E+00
              0.199566471779730E+00
              0.434651089718575E+00
              0.141912183185302E-01
              0.188256340687665E-01
             -0.215126503044459E+00
             -0.124928441256651E+01
              0.183519800274964E+00
             -0.208022890420566E+01
              0.120978351278474E+01
             -0.690085956487249E+00
             -0.303801393645506E+00
             -0.344581756920416E+00
              0.358327755346360E+00
             -0.289078713614192E+00
              0.495537480335771E+00
             -0.990134136843891E+00
              0.634718658768977E+00
              0.717893433652282E+00
              0.179000779125715E+00
              0.152064581716019E+00
              0.365895122073595E+00
              0.157128588072689E+00
              0.528077233737353E+00
             -0.844880568969715E-01
             -0.123025900179672E+01
              0.165295413334944E+00
             -0.577297184253263E+00
             -0.436609980105649E-01
              0.933287186587249E+00
             -0.137955490363496E+01
              0.311190714102487E-01
              0.534656977467947E-01
              0.159480596087707E+00
              0.528681778648100E+00
             -0.223365379813971E+00
              0.144445071083828E+01
              0.655892025211937E+00
             -0.255809114212625E+00
             -0.164388667428238E+00
              0.975560567800886E-01
              0.135170943117564E+01
             -0.853222240668144E+00
             -0.174072377924842E+01
              0.497470318552632E+00
             -0.134100850737862E+00
             -0.257955874065895E+00
              0.325410449813801E+00
              0.130118931339004E+01
              0.721111251809457E+00
             -0.298878735757800E+00
             -0.919480835834963E+00
             -0.205312298748108E+00
              0.473953853408840E+00
             -0.296339539597114E+00
             -0.130064088586839E+01
             -0.146659639425605E+00
             -0.165774843410776E+01
             -0.870601594671340E+00
              0.147648795207536E+01
             -0.887787849561345E+00
             -0.121365653813973E+01
             -0.917712458007392E+00
             -0.678174636004256E+00
              0.575281685105843E+00
              0.145021201860591E+01
             -0.151816715580663E+00
              0.460599801782489E+00
             -0.335255082464160E+00
             -0.116053805668896E+01
              0.892264125952303E+00
             -0.823124382216028E+00
              0.446495076466030E+00
              0.501855746735244E+00
             -0.257206756273677E+00
              0.655573159137438E+00
              0.670947619369133E+00
              0.203522083549589E+01
             -0.193702034543177E+00
             -0.940904991701546E+00
             -0.114216078881049E+01
             -0.313658054860127E+00
             -0.687227584241557E+00
              0.162571571497086E+01
             -0.780761058829821E+00
              0.167226817836361E+00
              0.546633651275696E-01
             -0.347266941890036E+00
             -0.145304342637552E+01
             -0.114032078226362E+00
              0.171936390767992E+01
              0.348968934377470E+00
              0.130363439203334E+00
             -0.982434050285761E+00
             -0.934185859398342E+00
             -0.284617438411560E+00
              0.784470840746147E+00
             -0.452358813510426E+00
              0.173850909110956E+01
             -0.791135033479443E+00
              0.319517535567410E+00
             -0.259304994318374E+00
             -0.106227712121481E+01
              0.111910983136298E+00
             -0.965127872226716E+00
             -0.126860894879649E+01
              0.171382153049651E+00
              0.254830304959155E-01
              0.836537208982724E+00
              0.452158066276573E+00
             -0.600436015308720E+00
              0.383507099131084E+00
             -0.149189871361292E+01
             -0.825557145868993E+00
              0.160185757837395E+01
              0.762387623258973E-01
             -0.112314339916777E+00
             -0.437575924778715E+00
             -0.317560365342473E-02
             -0.195295902247336E+00
              0.155543946218248E+01
              0.702958247087525E+00
             -0.163649482763351E+00
             -0.225727104578048E-01
             -0.663749128372102E+00
             -0.232862648081232E+00
             -0.107965178557111E+01
              0.885709185582812E+00
              0.112905710581512E+00
              0.148000330009288E+00
              0.305478172661494E+00
             -0.225811750123194E+00
             -0.381671874080330E+00
              0.114161205574347E+00
             -0.189356758816017E+01
             -0.195373856621929E+00
             -0.151960192176849E+00
             -0.110242346233036E+00
              0.860839896576501E+00
              0.109544376895892E+01
              0.300424259059862E+00
             -0.160029438929035E+01
              0.110278452732292E+01
             -0.418070021578246E+00
             -0.636400997807674E+00
             -0.149747858971264E+01
             -0.492532904797066E+00
              0.105636725483182E+01
              0.561452574599752E+00
              0.281026621857947E+00
              0.590887356095161E+00
             -0.955647674368564E+00
             -0.823556484778891E+00
              0.107064937534996E+01
              0.714891085495788E+00
              0.818997057046876E+00
              0.118204284616629E+00
              0.177452834092594E+00
              0.909327683587920E+00
              0.170050075625490E+01
             -0.330678944335308E+00
              0.677747943269104E+00
             -0.451811492181028E+00
             -0.748938915310922E+00
             -0.586528488803666E+00
             -0.555951713699560E+00
             -0.238867348901915E+00
             -0.826696991396714E+00
             -0.344448283043693E+00
             -0.222925664985956E+01
              0.544337806671694E+00
              0.484762140058366E+00
             -0.488794012782712E-01
             -0.637871590728530E+00
             -0.325837457177353E+00
             -0.957698307911882E+00
              0.113989928329605E+00
              0.136645207820516E+01
             -0.321661911026403E+00
             -0.324661920983989E+00
              0.323202975625977E+00
             -0.861865150682249E+00
              0.148937394821590E+01
              0.278849280485576E+00
              0.127615814041881E+00
              0.904087785515555E+00
             -0.846386123804255E-01
              0.101195457832167E+01
              0.334738741519932E+00
             -0.559529422333096E-01
              0.237634866606615E+00
             -0.155483700214551E+00
              0.117905085462384E+01
              0.122910042851869E+00
              0.351388310788027E+00
             -0.151283673480946E+00
              0.178530264911222E+00
             -0.161562077746226E+01
             -0.614233149916396E+00
             -0.841630835385500E+00
              0.882754862060919E+00
             -0.603971727940090E+00
             -0.974807460624627E+00
              0.101782207176966E+01
             -0.244059869641557E+00
              0.725364110827904E+00
             -0.153577945730367E+01
              0.334032752019374E+00
              0.758210370132741E-01
              0.104480684996725E+00
             -0.220882171855315E+00
             -0.107437022154034E+00
              0.857034427652123E+00
              0.480046099822058E-01
             -0.892892303720457E+00
             -0.368531328990996E+00
              0.334389351044479E+00
             -0.199585356802065E+01
             -0.151775753703755E+01
              0.200803627599413E-01
              0.264835008353656E+00
             -0.864506558093145E+00
              0.691317341182085E-02
              0.179011481240038E+01
              0.520795652944280E+00
             -0.937957875869328E+00
              0.131134075991032E+00
             -0.176163608905726E+00
              0.221102819072589E+00
             -0.606165810338615E+00
              0.381374260768603E+00
              0.406683557885898E+00
             -0.149603418015717E+00
              0.193027594923400E+01
             -0.871652669477188E-01
             -0.533294575062648E+00
              0.514062525324411E+00
              0.740975240431840E+00
             -0.566824504659835E+00
             -0.160447393727141E-01
              0.168490795895237E+01
             -0.287645352614732E-01
              0.891645994183606E+00
              0.284339063022486E+00
             -0.130850619019017E+00
             -0.276602116568842E+00
              0.837478338634363E+00
             -0.101217495724260E+01
             -0.424190831966564E-01
             -0.338990691998823E+00
             -0.703092682725005E+00
              0.191757335264049E+00
              0.415840330494075E+00
             -0.110761252322398E-01
             -0.343264176395683E-01
             -0.704977696369662E+00
              0.270623161233271E+00
             -0.308115924510832E-01
             -0.383739162968107E+00
             -0.355620607627621E+00
              0.311240391308581E+00
             -0.149798121761382E-01
             -0.664136874257322E+00
             -0.183981396038639E+01
              0.101012964854387E+00
              0.280828128143059E+00
             -0.816693477901421E+00
             -0.428425299489748E+00
              0.141141668674853E+01
              0.204768784475012E+00
              0.740027909515675E+00
              0.174887744390771E+00
              0.670725202361844E+00
              0.372794423978373E-01
             -0.685934785910107E+00
             -0.176593288111139E+00
              0.994064150562117E-01
              0.520708664332352E+00
              0.130219603962704E+01
              0.847653678886786E+00
              0.429307691436493E-01
              0.187806064382814E+00
              0.104352488238033E+01
              0.479629863876673E+00
             -0.121491427128335E+01
             -0.477114744205938E+00
              0.208856886010929E+00
              0.172180891985747E+00
              0.436781796745852E+00
             -0.889808607082178E+00
              0.919966951941869E-01
              0.698953450869122E+00
              0.839729721034451E+00
             -0.730091790698247E+00
              0.263183464818324E-01
             -0.419690885553372E-01
             -0.356557114239942E+00
             -0.450054169265597E+00
             -0.211280046558948E+00
             -0.189146353386517E+00
              0.188369129717294E+00
              0.720603407575508E+00
             -0.556472066209143E+00
              0.140050122609668E+01
              0.577764040376617E+00
              0.443590490746886E+00
              0.637406620277378E+00
              0.442396810787501E+00
              0.589437020831484E+00
              0.955866494680257E+00
             -0.813718409023401E+00
              0.108443886139136E+01
             -0.194955855662646E+01
              0.543008140291467E+00
             -0.181038979776464E+01
              0.138674478149833E+01
              0.134241535641463E+01
             -0.144955204893495E+00
             -0.813364408173143E+00
             -0.738176655786012E+00
             -0.940268286935292E+00
             -0.112607630336654E+01
              0.935471961566645E+00
              0.740493639099360E+00
              0.419621374107476E+00
              0.463828470543453E+00
              0.751056423143554E+00
             -0.702336180730811E+00
             -0.251964100524674E+00
              0.927623921773540E+00
             -0.207446081323545E+00
              0.853193289978019E+00
              0.132577825031466E+01
             -0.550748614550487E-01
             -0.129646863524968E+01
              0.818977980367954E-01
              0.354039649144126E-01
             -0.176422499025711E+00
              0.542726305046637E-01
             -0.112086665073954E+01
             -0.171514729268749E+00
              0.230439472619866E+00
              0.228555540326751E+00
              0.854273397471340E+00
             -0.711586536517035E+00
              0.921481987820922E+00
             -0.664182073549328E+00
              0.454323942288283E+00
              0.748012912135613E+00
 
 BEEF-vdW xc energy contributions
           1 :   -12.1585122139350     
           2 :    10.0609631885810     
           3 :   -7.08594798836827     
           4 :    4.32953425949304     
           5 :   -2.25241060848635     
           6 :   0.915344719280222     
           7 :  -0.194996279199572     
           8 :  -0.111359740469794     
           9 :   0.211930146973739     
          10 :  -0.270530890043821     
          11 :   0.353837134934768     
          12 :  -0.437146681629752     
          13 :   0.467167885334877     
          14 :  -0.422286229555175     
          15 :   0.318241043259823     
          16 :  -0.189070960148612     
          17 :   7.227367610427216E-002
          18 :   4.424627492110034E-004
          19 :  -2.061506110845457E-002
          20 :   5.921772962791394E-003
          21 :   1.430011001714249E-002
          22 :  -1.890807616859647E-002
          23 :   2.262151072560670E-003
          24 :   2.651696148334892E-002
          25 :  -5.012757272648116E-002
          26 :   5.174398882892284E-002
          27 :  -2.787673504282040E-002
          28 :  -1.000671566335321E-002
          29 :   4.495039867195771E-002
          30 :  -6.520674970842499E-002
          31 :   -1.56957104937286     
          32 :  -0.974281237548675     

     Writing output data file ./pwscf.save/
 
     init_run     :     70.52s CPU     73.26s WALL (       1 calls)
     electrons    :    565.18s CPU    620.85s WALL (       1 calls)
     forces       :     29.95s CPU     32.37s WALL (       1 calls)

     Called by init_run:
     wfcinit      :      1.52s CPU      1.57s WALL (       1 calls)
     potinit      :     55.93s CPU     57.84s WALL (       1 calls)
     hinit0       :     11.20s CPU     11.35s WALL (       1 calls)

     Called by electrons:
     c_bands      :     85.26s CPU     86.19s WALL (      17 calls)
     sum_band     :     48.52s CPU     58.63s WALL (      17 calls)
     v_of_rho     :    319.36s CPU    350.58s WALL (      18 calls)
     newd         :     22.73s CPU     33.12s WALL (      18 calls)
     PAW_pot      :      1.63s CPU      1.63s WALL (      18 calls)
     mix_rho      :    136.30s CPU    141.60s WALL (      17 calls)
     vdW_kernel   :     33.62s CPU     33.62s WALL (       1 calls)

     Called by c_bands:
     init_us_2    :      1.58s CPU      1.60s WALL (      35 calls)
     regterg      :     82.79s CPU     83.72s WALL (      17 calls)

     Called by *egterg:
     rdiaghg      :      0.02s CPU      0.02s WALL (     115 calls)
     h_psi        :     75.73s CPU     75.75s WALL (     116 calls)
     s_psi        :      1.12s CPU      1.12s WALL (     116 calls)
     g_psi        :      0.27s CPU      0.27s WALL (      98 calls)

     Called by h_psi:
     h_psi:calbec :      1.21s CPU      1.21s WALL (     116 calls)
     vloc_psi     :     72.96s CPU     72.97s WALL (     116 calls)
     add_vuspsi   :      1.14s CPU      1.14s WALL (     116 calls)

     General routines
     calbec       :      1.48s CPU      1.49s WALL (     137 calls)
     fft          :    270.42s CPU    270.44s WALL (    2991 calls)
     ffts         :     57.52s CPU     57.52s WALL (     663 calls)
     fftw         :     69.15s CPU     69.15s WALL (     790 calls)
 
     Parallel routines
 
     PWSCF        :  19m26.04s CPU  21m24.98s WALL

 
   This run was terminated on:  16:48:24  20Dec2022            

=------------------------------------------------------------------------------=
   JOB DONE.
=------------------------------------------------------------------------------=
