
     Program PWSCF v.6.7MaX starts on 20Dec2022 at 16:49:18 

     This program is part of the open-source Quantum ESPRESSO suite
     for quantum simulation of materials; please cite
         "P. Giannozzi et al., J. Phys.:Condens. Matter 21 395502 (2009);
         "P. Giannozzi et al., J. Phys.:Condens. Matter 29 465901 (2017);
          URL http://www.quantum-espresso.org", 
     in publications or presentations arising from this work. More details at
     http://www.quantum-espresso.org/quote

     Parallel version (MPI), running on     1 processors

     MPI processes distributed on     1 nodes
     Reading input from ochch2-gas-ensemble.in
Warning: card &CELL ignored
Warning: card / ignored

     Current dimensions of program PWSCF are:
     Max number of different atomic species (ntypx) = 10
     Max number of k-points (npk) =  40000
     Max angular momentum in pseudopotentials (lmaxx) =  3
     file O.pbe-nl-kjpaw_psl.1.0.0.UPF: wavefunction(s)  2S 2P renormalized
     file C.pbe-n-kjpaw_psl.1.0.0.UPF: wavefunction(s)  2S 2P renormalized
     file H.pbe-kjpaw_psl.1.0.0.UPF: wavefunction(s)  1S renormalized

     **************************************************************************
     Initializing libbeef V0.1.2 with the BEEF-vdW functional.
     Citation: Wellendorff et al., PRB 85, 235149 (2012).
     **************************************************************************


     IMPORTANT: XC functional enforced from input :
     Exchange-correlation= BEEF-VDW
                           (   1   4  43  14   2   0   0)
     Any further DFT definition will be discarded
     Please, verify this is what you really want


     gamma-point specific algorithms are used

     Subspace diagonalization in iterative solution of the eigenvalue problem:
     a serial algorithm will be used

 
     G-vector sticks info
     --------------------
     sticks:   dense  smooth     PW     G-vecs:    dense   smooth      PW
     Sum       31817   31817   7951              4350213  4350213  543789
 


     bravais-lattice index     =            0
     lattice parameter (alat)  =      38.8670  a.u.
     unit-cell volume          =   69280.1012 (a.u.)^3
     number of atoms/cell      =            6
     number of atomic types    =            3
     number of electrons       =        17.00
     number of Kohn-Sham states=           13
     kinetic-energy cutoff     =      60.0000  Ry
     charge density cutoff     =     240.0000  Ry
     scf convergence threshold =      1.0E-06
     mixing beta               =       0.7000
     number of iterations used =            8  local-TF  mixing
     Exchange-correlation= BEEF-VDW
                           (   1   4  43  14   2   0   0)

     celldm(1)=  38.867005  celldm(2)=   0.000000  celldm(3)=   0.000000
     celldm(4)=   0.000000  celldm(5)=   0.000000  celldm(6)=   0.000000

     crystal axes: (cart. coord. in units of alat)
               a(1) = (   1.000000   0.000000   0.000000 )  
               a(2) = (   0.000000   1.103005   0.000000 )  
               a(3) = (   0.000000   0.000000   1.069764 )  

     reciprocal axes: (cart. coord. in units 2 pi/alat)
               b(1) = (  1.000000  0.000000  0.000000 )  
               b(2) = (  0.000000  0.906615  0.000000 )  
               b(3) = (  0.000000  0.000000  0.934786 )  


     PseudoPot. # 1 for O  read from file:
     /users/bkreitz1/quantum-espresso/potentials/O.pbe-nl-kjpaw_psl.1.0.0.UPF
     MD5 check sum: eef08af8b58d9ec80f8fdb78829eb7cf
     Pseudo is Projector augmented-wave + core cor, Zval =  6.0
     Generated using 'atomic' code by A. Dal Corso  v.6.7MaX
     Shape of augmentation charge: PSQ
     Using radial grid of 1095 points,  4 beta functions with: 
                l(1) =   0
                l(2) =   0
                l(3) =   1
                l(4) =   1
     Q(r) pseudized with 0 coefficients 


     PseudoPot. # 2 for C  read from file:
     /users/bkreitz1/quantum-espresso/potentials/C.pbe-n-kjpaw_psl.1.0.0.UPF
     MD5 check sum: a169b0ebad56f5ec0d79c4633f80bf22
     Pseudo is Projector augmented-wave + core cor, Zval =  4.0
     Generated using 'atomic' code by A. Dal Corso  v.6.7MaX
     Shape of augmentation charge: PSQ
     Using radial grid of 1073 points,  4 beta functions with: 
                l(1) =   0
                l(2) =   0
                l(3) =   1
                l(4) =   1
     Q(r) pseudized with 0 coefficients 


     PseudoPot. # 3 for H  read from file:
     /users/bkreitz1/quantum-espresso/potentials/H.pbe-kjpaw_psl.1.0.0.UPF
     MD5 check sum: ae98473e6dc62675f0d0baffdab24f65
     Pseudo is Projector augmented-wave, Zval =  1.0
     Generated using 'atomic' code by A. Dal Corso  v.6.7MaX
     Shape of augmentation charge: PSQ
     Using radial grid of  929 points,  2 beta functions with: 
                l(1) =   0
                l(2) =   0
     Q(r) pseudized with 0 coefficients 


     atomic species   valence    mass     pseudopotential
        O              6.00    15.99900     O ( 1.00)
        C              4.00    12.01100     C ( 1.00)
        H              1.00     1.00800     H ( 1.00)

     No symmetry found



   Cartesian axes

     site n.     atom                  positions (alat units)
         1           O   tau(   1) = (   0.5034687   0.6168947   0.4863240  )
         2           C   tau(   2) = (   0.4971239   0.5829372   0.5363688  )
         3           C   tau(   3) = (   0.5030116   0.5143935   0.5360931  )
         4           H   tau(   4) = (   0.4863622   0.6063691   0.5834712  )
         5           H   tau(   5) = (   0.4967605   0.4863325   0.5801758  )
         6           H   tau(   6) = (   0.5139150   0.4895455   0.4914840  )

     number of k points=     1  Gaussian smearing, width (Ry)=  0.0050
                       cart. coord. in units 2pi/alat
        k(    1) = (   0.0000000   0.0000000   0.0000000), wk =   2.0000000

     Dense  grid:  2175107 G-vectors     FFT dimensions: ( 192, 216, 216)

     Estimated max dynamical RAM per process >       3.43 GB

     Initial potential from superposition of free atoms

     starting charge   16.99989, renormalised to   17.00000

     negative rho (up, down):  1.601E-02 0.000E+00


     %%%%%%%%%%%%%%%%%%%%%%%%%%%%%%%%%%%%%%%%%%%%%%%%%%%%%%%%%%%%%%%%%%%%%%%%
     %                                                                      %
     % You are using vdW-DF, which was implemented by the Thonhauser group. %
     % Please cite the following two papers that made this development      %
     % possible and the two reviews that describe the various versions:     %
     %                                                                      %
     %   T. Thonhauser et al., PRL 115, 136402 (2015).                      %
     %   T. Thonhauser et al., PRB 76, 125112 (2007).                       %
     %   K. Berland et al., Rep. Prog. Phys. 78, 066501 (2015).             %
     %   D.C. Langreth et al., J. Phys.: Condens. Matter 21, 084203 (2009). %
     %                                                                      %
     %                                                                      %
     % If you are calculating the stress with vdW-DF, please also cite:     %
     %                                                                      %
     %   R. Sabatini et al., J. Phys.: Condens. Matter 24, 424209 (2012).   %
     %                                                                      %
     %%%%%%%%%%%%%%%%%%%%%%%%%%%%%%%%%%%%%%%%%%%%%%%%%%%%%%%%%%%%%%%%%%%%%%%%


     Starting wfcs are   15 randomized atomic wfcs
     Checking if some PAW data can be deallocated... 

     total cpu time spent up to now is       79.9 secs

     Self-consistent Calculation

     iteration #  1     ecut=    60.00 Ry     beta= 0.70
     Davidson diagonalization with overlap
     ethr =  1.00E-02,  avg # of iterations =  5.0

     negative rho (up, down):  1.284E-02 0.000E+00

     total cpu time spent up to now is      125.6 secs

     total energy              =     -83.98778399 Ry
     estimated scf accuracy    <       0.67433322 Ry

     iteration #  2     ecut=    60.00 Ry     beta= 0.70
     Davidson diagonalization with overlap
     ethr =  3.97E-03,  avg # of iterations =  2.0

     negative rho (up, down):  1.148E-02 0.000E+00

     total cpu time spent up to now is      167.9 secs

     total energy              =     -83.98050909 Ry
     estimated scf accuracy    <       0.15960076 Ry

     iteration #  3     ecut=    60.00 Ry     beta= 0.70
     Davidson diagonalization with overlap
     ethr =  9.39E-04,  avg # of iterations =  5.0

     negative rho (up, down):  1.348E-02 0.000E+00

     total cpu time spent up to now is      211.7 secs

     total energy              =     -83.97721486 Ry
     estimated scf accuracy    <       0.04485119 Ry

     iteration #  4     ecut=    60.00 Ry     beta= 0.70
     Davidson diagonalization with overlap
     ethr =  2.64E-04,  avg # of iterations =  5.0

     negative rho (up, down):  2.336E-02 0.000E+00

     total cpu time spent up to now is      256.6 secs

     total energy              =     -83.97634231 Ry
     estimated scf accuracy    <       0.01391711 Ry

     iteration #  5     ecut=    60.00 Ry     beta= 0.70
     Davidson diagonalization with overlap
     ethr =  8.19E-05,  avg # of iterations = 16.0

     negative rho (up, down):  5.515E-02 0.000E+00

     total cpu time spent up to now is      304.8 secs

     total energy              =     -83.97522706 Ry
     estimated scf accuracy    <       0.00647600 Ry

     iteration #  6     ecut=    60.00 Ry     beta= 0.70
     Davidson diagonalization with overlap
     ethr =  3.81E-05,  avg # of iterations =  6.0

     negative rho (up, down):  9.652E-02 0.000E+00

     total cpu time spent up to now is      351.0 secs

     total energy              =     -83.97625802 Ry
     estimated scf accuracy    <       0.00273038 Ry

     iteration #  7     ecut=    60.00 Ry     beta= 0.70
     Davidson diagonalization with overlap
     ethr =  1.61E-05,  avg # of iterations =  5.0

     negative rho (up, down):  8.098E-02 0.000E+00

     total cpu time spent up to now is      396.4 secs

     total energy              =     -83.97583854 Ry
     estimated scf accuracy    <       0.00102628 Ry

     iteration #  8     ecut=    60.00 Ry     beta= 0.70
     Davidson diagonalization with overlap
     ethr =  6.04E-06,  avg # of iterations =  8.0

     negative rho (up, down):  8.381E-02 0.000E+00

     total cpu time spent up to now is      442.1 secs

     total energy              =     -83.97574141 Ry
     estimated scf accuracy    <       0.00057322 Ry

     iteration #  9     ecut=    60.00 Ry     beta= 0.70
     Davidson diagonalization with overlap
     c_bands:  1 eigenvalues not converged
     ethr =  3.37E-06,  avg # of iterations = 20.0

     negative rho (up, down):  5.325E-02 0.000E+00

     total cpu time spent up to now is      492.0 secs

     total energy              =     -83.97514003 Ry
     estimated scf accuracy    <       0.00022716 Ry

     iteration # 10     ecut=    60.00 Ry     beta= 0.70
     Davidson diagonalization with overlap
     ethr =  1.34E-06,  avg # of iterations = 20.0

     negative rho (up, down):  4.568E-02 0.000E+00

     total cpu time spent up to now is      542.2 secs

     total energy              =     -83.97507251 Ry
     estimated scf accuracy    <       0.00008921 Ry

     iteration # 11     ecut=    60.00 Ry     beta= 0.70
     Davidson diagonalization with overlap
     ethr =  5.25E-07,  avg # of iterations =  5.0

     negative rho (up, down):  3.366E-02 0.000E+00

     total cpu time spent up to now is      587.1 secs

     total energy              =     -83.97507447 Ry
     estimated scf accuracy    <       0.00005126 Ry

     iteration # 12     ecut=    60.00 Ry     beta= 0.70
     Davidson diagonalization with overlap
     ethr =  3.02E-07,  avg # of iterations =  6.0

     negative rho (up, down):  2.621E-02 0.000E+00

     total cpu time spent up to now is      631.2 secs

     total energy              =     -83.97509132 Ry
     estimated scf accuracy    <       0.00001948 Ry

     iteration # 13     ecut=    60.00 Ry     beta= 0.70
     Davidson diagonalization with overlap
     ethr =  1.15E-07,  avg # of iterations =  9.0

     negative rho (up, down):  2.461E-02 0.000E+00

     total cpu time spent up to now is      677.2 secs

     total energy              =     -83.97509524 Ry
     estimated scf accuracy    <       0.00000878 Ry

     iteration # 14     ecut=    60.00 Ry     beta= 0.70
     Davidson diagonalization with overlap
     ethr =  5.16E-08,  avg # of iterations =  8.0

     negative rho (up, down):  2.297E-02 0.000E+00

     total cpu time spent up to now is      721.4 secs

     total energy              =     -83.97510201 Ry
     estimated scf accuracy    <       0.00000294 Ry

     iteration # 15     ecut=    60.00 Ry     beta= 0.70
     Davidson diagonalization with overlap
     ethr =  1.73E-08,  avg # of iterations =  1.0

     negative rho (up, down):  2.195E-02 0.000E+00

     total cpu time spent up to now is      763.3 secs

     total energy              =     -83.97510489 Ry
     estimated scf accuracy    <       0.00000120 Ry

     iteration # 16     ecut=    60.00 Ry     beta= 0.70
     Davidson diagonalization with overlap
     ethr =  7.03E-09,  avg # of iterations =  1.0

     negative rho (up, down):  2.143E-02 0.000E+00

     total cpu time spent up to now is      795.8 secs

     End of self-consistent calculation

          k = 0.0000 0.0000 0.0000 (271895 PWs)   bands (ev):

   -26.3110 -19.2735 -14.8147 -12.5724 -11.3551 -10.3332 -10.0492  -6.4432
    -6.1470  -1.2968  -0.9578  -0.4818  -0.3165

     the Fermi energy is    -6.1470 ev

!    total energy              =     -83.97510505 Ry

     total all-electron energy =      -308.350181 Ry
     estimated scf accuracy    <       0.00000039 Ry
     smearing contrib. (-TS)   =      -0.00282095 Ry
     internal energy E=F+TS    =     -83.97228410 Ry

     The total energy is F=E-TS. E is the sum of the following terms:
     one-electron contribution =    -187.31031638 Ry
     hartree contribution      =      96.40799868 Ry
     xc contribution           =     -19.44164356 Ry
     ewald contribution        =      49.61179416 Ry
     one-center paw contrib.   =     -23.24011700 Ry

     convergence has been achieved in  16 iterations

     negative rho (up, down):  2.143E-02 0.000E+00

     Forces acting on atoms (cartesian axes, Ry/au):

     atom    1 type  1   force =     0.00031949   -0.00031836    0.00022942
     atom    2 type  2   force =    -0.00075623    0.00260009   -0.00035097
     atom    3 type  2   force =    -0.00163300    0.00235281    0.00994879
     atom    4 type  3   force =    -0.00011330   -0.00030056    0.00006067
     atom    5 type  3   force =     0.00010569    0.00068893    0.00022141
     atom    6 type  3   force =     0.00207734   -0.00502291   -0.01010932

     Total force =     0.015725     Total SCF correction =     0.000268

     negative rho (up, down):  2.143E-02 0.000E+00

     negative rho (up, down):  2.143E-02 0.000E+00

     negative rho (up, down):  2.143E-02 0.000E+00

     negative rho (up, down):  2.143E-02 0.000E+00

     negative rho (up, down):  2.143E-02 0.000E+00

     negative rho (up, down):  2.143E-02 0.000E+00

     negative rho (up, down):  2.143E-02 0.000E+00

     negative rho (up, down):  2.143E-02 0.000E+00

     negative rho (up, down):  2.143E-02 0.000E+00

     negative rho (up, down):  2.143E-02 0.000E+00

     negative rho (up, down):  2.143E-02 0.000E+00

     negative rho (up, down):  2.143E-02 0.000E+00

     negative rho (up, down):  2.143E-02 0.000E+00

     negative rho (up, down):  2.143E-02 0.000E+00

     negative rho (up, down):  2.143E-02 0.000E+00

     negative rho (up, down):  2.143E-02 0.000E+00

     negative rho (up, down):  2.143E-02 0.000E+00

     negative rho (up, down):  2.143E-02 0.000E+00

     negative rho (up, down):  2.143E-02 0.000E+00

     negative rho (up, down):  2.143E-02 0.000E+00

     negative rho (up, down):  2.143E-02 0.000E+00

     negative rho (up, down):  2.143E-02 0.000E+00

     negative rho (up, down):  2.143E-02 0.000E+00

     negative rho (up, down):  2.143E-02 0.000E+00

     negative rho (up, down):  2.143E-02 0.000E+00

     negative rho (up, down):  2.143E-02 0.000E+00

     negative rho (up, down):  2.143E-02 0.000E+00

     negative rho (up, down):  2.143E-02 0.000E+00

     negative rho (up, down):  2.143E-02 0.000E+00

     negative rho (up, down):  2.143E-02 0.000E+00

     negative rho (up, down):  2.143E-02 0.000E+00

     negative rho (up, down):  2.143E-02 0.000E+00

     negative rho (up, down):  2.143E-02 0.000E+00

     negative rho (up, down):  2.143E-02 0.000E+00
 BEEFens 2000 ensemble energies
             -0.145916130587104E+01
             -0.532971502799211E-01
             -0.298194529799544E+00
              0.100043647587831E+01
             -0.472459342177702E+00
             -0.355819719417379E+00
             -0.107418051622387E+01
             -0.220548456943950E+01
             -0.786095788529071E+00
             -0.844449172389623E+00
             -0.817281469075334E+00
              0.133062460489612E+00
              0.781783796259714E-01
             -0.106627821456895E+00
              0.901209568166568E-01
              0.106387350708643E+01
             -0.451627257922542E+00
             -0.227652497573162E+00
              0.531689176409277E+00
             -0.250430309089590E+01
              0.128043829329979E+01
             -0.428817335856932E+00
             -0.141985115866443E+00
             -0.202406646430179E+00
              0.587001535277309E-01
             -0.122550730453128E+00
              0.199391935768076E+01
             -0.512837498891557E+00
             -0.185359382335267E+00
             -0.127216591030148E+01
              0.155551852283060E+01
             -0.100780519843432E+00
             -0.942064177993744E+00
              0.414339527072866E+00
             -0.644003819130630E-01
              0.650059227430041E+00
              0.411328927871946E-01
             -0.614523854161142E-02
              0.844442929897363E+00
             -0.226254056945290E+01
              0.124083050691775E+01
              0.268910588105042E+00
             -0.273721780377935E+00
             -0.679248784478736E+00
              0.269601036498785E+00
             -0.401709520920866E+00
              0.114681177189694E+01
              0.797172032933366E+00
             -0.429409661895816E+00
             -0.724449532520833E+00
             -0.687861482364422E+00
             -0.839280675929410E+00
              0.493550287054559E+00
             -0.119263304699735E+01
              0.367936361578675E+00
              0.138272064734204E+01
              0.170148192663445E+01
              0.721838799935234E+00
              0.383065830716846E+00
              0.731652084868823E+00
              0.205580065186513E+01
              0.381831827594896E+00
             -0.124758092899329E+01
             -0.216119578158189E+00
             -0.665722347516320E+00
              0.141361522017035E+01
             -0.164049029677654E+01
             -0.133050007521860E+01
             -0.756029889817912E+00
             -0.427672769242108E+00
             -0.889096028278093E+00
              0.622575751875086E+00
              0.301461127598726E+00
              0.361979849131717E+00
             -0.865056742100242E+00
             -0.805348004448707E+00
             -0.132799951080767E+01
              0.716490336007732E+00
             -0.774087685270502E+00
              0.711124349275898E+00
             -0.179367280194514E+00
             -0.642070660581624E+00
             -0.115041611321249E+01
             -0.340926838105254E+00
             -0.383223464490117E+00
             -0.342517113997211E+00
              0.874078800740991E+00
              0.175743274600740E+01
             -0.103468864725010E+01
             -0.180835716988555E+01
             -0.415736356197169E+00
              0.246919645344150E+01
             -0.125600994011312E+01
              0.692484143374378E+00
             -0.267013325781690E+00
             -0.134473247598975E+01
              0.625800199795228E+00
              0.689874382821104E+00
             -0.330934738718502E+00
              0.641372079865965E+00
             -0.564109316357122E+00
             -0.138379306384447E+01
              0.227069807113868E+01
              0.102945104328250E+01
              0.482422561725112E+00
              0.289536455346030E+00
              0.525569448065730E+00
              0.184089453480611E+01
             -0.599396105555781E+00
              0.563585545404439E-01
             -0.313138243204203E+01
              0.406951972461782E+00
             -0.149824066663724E+01
              0.280776354963842E+00
              0.488635470957453E+00
             -0.839387547600762E+00
             -0.113192634754858E+01
              0.605093544157249E-01
             -0.694043792566193E+00
              0.100236070467071E+01
             -0.101989227561414E+01
             -0.187847538270251E+00
             -0.869448242605684E+00
             -0.805381153513638E-01
              0.105884540272085E+00
              0.512379268450922E+00
             -0.128425451466434E-01
             -0.141060454436616E+00
              0.150561275885091E+01
              0.207995336987335E+01
              0.111702253242929E+01
              0.147776208321040E+01
             -0.303547970572645E+00
              0.188759132150969E+00
              0.116815524167285E+01
              0.111585201425145E+00
             -0.172244242457191E+01
             -0.992546035342180E+00
             -0.109778581387612E+01
             -0.665965401782872E+00
              0.570840666617887E+00
             -0.275446087195838E+01
             -0.271282196856581E+00
              0.105223659714958E+01
             -0.914273797713952E+00
             -0.652619712480366E+00
              0.130845784679243E+01
              0.110981114505008E+01
             -0.635534824063081E+00
              0.737981940913009E+00
             -0.561548301790967E+00
              0.856701219391654E+00
              0.164588502796930E+00
              0.240715485732919E+00
             -0.185232780322385E+01
             -0.108545956222687E+01
             -0.197309275840958E+00
             -0.681348785656866E-01
             -0.967467589789871E+00
              0.250866003427779E+01
             -0.262162722565051E+00
             -0.603478837325890E+00
              0.888620278573786E+00
             -0.101205243311235E+01
             -0.851501767266776E+00
              0.735666361831628E+00
              0.274091997389502E+00
              0.240000049047723E+00
              0.362060845522280E+00
             -0.240114045049662E+00
              0.222618504220095E+00
              0.132176064850341E+01
             -0.612995923410089E+00
              0.500088105963339E+00
              0.200407427820292E+01
              0.708068128904080E+00
             -0.948124110579727E-01
             -0.463359495018674E+00
              0.351086137755679E+01
             -0.562417314368378E+00
              0.883617295467195E+00
              0.695979790666055E+00
              0.628938374686857E+00
              0.210305069284343E+01
              0.104120238295015E+01
             -0.125777116492002E+00
              0.566412598567162E+00
              0.117165085622308E+01
              0.874767357500299E+00
             -0.138548394096708E+01
              0.213149182527696E+01
             -0.193902640918774E+01
             -0.244725314049666E+00
              0.127228586864032E+01
              0.380620793169598E+00
              0.124339878123877E+00
              0.622765919711969E+00
              0.349600365092107E+00
              0.736298460473870E+00
             -0.141442322410064E+01
              0.786290916057322E-01
             -0.524763588708760E+00
             -0.137220609848458E+00
             -0.649004747328021E-01
             -0.290925609416900E+00
             -0.145262052723084E+00
              0.187592038804741E+01
             -0.111966297608935E+00
             -0.651481555869692E+00
             -0.264876136071437E-01
              0.322822330759489E+00
             -0.145204026007153E+01
             -0.124875705297324E+01
             -0.765488164290777E+00
             -0.141933897407609E+01
             -0.431307649388789E+00
             -0.909913356031511E+00
              0.413974228601545E+00
              0.482146156295018E-01
             -0.293570747167506E+00
             -0.182397950125371E+00
              0.111172902797230E+00
             -0.310277143045778E+00
              0.146499969514811E+01
             -0.198125562940574E+01
             -0.300806322118582E+00
             -0.311566728364143E+00
              0.348130924901127E+00
              0.484338462652130E+00
             -0.115787812252316E+01
             -0.273776181383856E+00
              0.100982098221610E+01
             -0.444443076490945E+00
              0.300240113672091E+00
              0.764284580301653E+00
             -0.138653849249000E-01
              0.260300255984015E+01
             -0.251010664941866E+00
             -0.779951120308430E+00
              0.854026344227776E-02
             -0.633352943336057E+00
              0.123360236400885E+01
             -0.108952312593689E+01
              0.311126745962142E+00
              0.112986474072372E+01
             -0.295251518677505E+00
              0.266062038164919E+01
              0.288434861700122E+01
             -0.159448573909354E+01
              0.129384032092163E+01
              0.531141504765960E+00
             -0.127047520207036E+01
              0.399668705108623E+00
              0.964934888101538E+00
              0.105806233728512E+01
              0.106550915114466E+00
              0.400160231675667E+00
              0.169091036726379E+01
             -0.520848368531946E+00
              0.207687861610260E+00
              0.153168131930025E+01
             -0.820225385037532E+00
             -0.545981379422583E+00
              0.133877162967630E+01
              0.695439072084981E+00
              0.174107126342098E+01
              0.769088356808046E+00
              0.306080593940841E+00
              0.565556507832083E+00
              0.962857516655157E+00
             -0.118444249236869E+01
              0.171187188333990E+00
              0.615457895964057E+00
              0.247267609010088E+00
              0.547052063190196E+00
             -0.140238181898241E+01
              0.725684927728938E+00
             -0.979127545324985E+00
             -0.697695180898632E+00
              0.434615593509156E+00
             -0.197817032900371E+00
              0.135321597007548E+01
             -0.320927179997418E+00
              0.661124617542347E+00
              0.675429143021047E+00
              0.174456666753067E+01
              0.118039540427464E+01
              0.116121845714227E+01
             -0.642032928749670E-01
             -0.255214378123858E+00
             -0.668069805259044E+00
              0.185386915672421E+01
              0.187070021468205E+01
              0.889724343041547E+00
             -0.643436049676096E+00
              0.111754524807695E+01
             -0.490692382759228E-03
              0.387193339529026E+00
              0.157197609819556E+01
             -0.592166235666798E-01
             -0.232751125688238E+00
             -0.473166394924162E+00
             -0.138313772289758E+01
              0.218043803088604E+01
              0.115381574473160E+01
             -0.146163893028544E+01
             -0.492117130718108E+00
              0.572029920412043E+00
             -0.240506781602454E+00
              0.149010186116685E+01
              0.347558874356892E+00
              0.184089801383149E+01
              0.687813622923029E+00
             -0.532817430915859E+00
              0.413800567600315E+00
             -0.158590531648763E+00
             -0.575902899391538E+00
              0.385019426275330E+00
              0.363985495639591E+00
              0.203587160800910E+01
              0.172840373978590E+01
              0.129037488586555E+01
              0.152002968949196E+01
              0.149133164142457E+00
             -0.576014696311063E+00
              0.301542786330407E+00
             -0.755670629673467E+00
             -0.127921101404443E+01
             -0.128705007152418E+01
             -0.726367513334966E+00
             -0.244740033403363E+01
             -0.837346564535205E+00
             -0.196311453940032E+01
              0.464448146498466E+00
             -0.102102232080394E+01
              0.114923168014358E+01
             -0.223206097846591E+01
             -0.671030357483742E+00
              0.885444146684535E+00
              0.495485072458093E+00
             -0.204939294322815E+01
              0.120960380169229E+01
             -0.644477863326575E+00
              0.125439400419774E+01
             -0.629033503139992E+00
             -0.178114017711961E+01
              0.405211324005422E+00
             -0.149926770636322E+01
             -0.843967491178805E-01
             -0.288825119516369E-01
              0.945986876018789E+00
              0.284774150967965E+01
             -0.975884332455450E+00
             -0.853588805779006E+00
             -0.144477194749232E+00
             -0.183410358282390E+00
             -0.181455919895137E+01
             -0.128425489832526E+01
              0.113023412063811E+01
             -0.417069342571448E+00
              0.501226081457304E+00
             -0.111850533319437E+01
             -0.361954100686845E+00
             -0.942753510060793E+00
              0.109524986763656E+01
              0.293125867896563E+00
             -0.551901820953585E+00
             -0.403603441741963E+00
              0.298009239495089E+00
             -0.179240084574301E+00
              0.913781434207196E+00
             -0.601859682318196E+00
              0.247500952832219E+00
              0.757192413094400E+00
              0.291889477711882E+00
             -0.532356260406784E+00
              0.350998125860369E+01
              0.134112893143930E+01
              0.226076524432550E+00
              0.144675272006193E+00
             -0.137136400104743E+01
              0.748609745866530E+00
             -0.176966763208525E+01
             -0.771694657205190E+00
             -0.135251600939996E+01
             -0.406728825988329E+00
              0.133267135704452E+01
             -0.131152268716964E+01
              0.593803585527973E+00
             -0.886904233188091E-01
              0.356562312418305E-01
             -0.713785827837842E+00
             -0.936130451678488E+00
             -0.133787727838648E+00
             -0.762206261442804E+00
             -0.514684818734356E+00
             -0.902501639509985E+00
             -0.123064644696910E+00
             -0.726065181560951E+00
             -0.110555681134229E+01
              0.491576177981254E+00
             -0.285771995649839E+00
              0.534629008851304E+00
              0.194825495702340E+00
             -0.170715254315158E+01
             -0.115608979936676E+01
             -0.112488491679815E+01
              0.736044503737027E+00
             -0.144986179882123E+00
             -0.140612417751451E+01
              0.128075857568793E+01
             -0.963450726637440E+00
              0.132738956800904E+01
             -0.701987230158403E+00
             -0.111225785941754E+01
              0.569737600596577E+00
             -0.165075918425375E+01
             -0.723346870125934E+00
              0.133358476686763E+01
              0.456263042890567E+00
             -0.977025309091463E+00
              0.125985047036950E+01
             -0.367663871077943E+00
             -0.837209580707299E+00
             -0.683538440096831E+00
             -0.118129056642525E+01
              0.574137606494651E+00
             -0.197009218993599E+01
             -0.174225755725152E+01
             -0.173196051755214E+00
             -0.653848192000481E+00
             -0.136742932648641E+01
              0.173304949598180E+01
              0.312042786904648E+01
             -0.500455702176987E+00
             -0.808350355864604E-01
             -0.137468261845139E+01
              0.149735226932195E+01
              0.496702008445020E+00
             -0.465520920605595E+00
             -0.823892974967194E+00
              0.332224265202668E+00
             -0.136288886842077E+01
             -0.256820522424402E+00
             -0.196653992915280E+01
              0.771528428849010E+00
              0.263568528443154E+00
             -0.127438004637508E+00
             -0.253972024063213E+00
             -0.942806051490731E+00
             -0.289743088612632E+00
              0.308970556398336E+01
             -0.353880871978246E+00
             -0.109305896989053E+01
             -0.156686388881782E+01
              0.314484553599948E+00
             -0.862494694116205E+00
              0.221199027966937E+00
              0.755577909945545E+00
              0.106429122944011E+00
              0.809696843003232E+00
              0.405870089959012E+00
              0.133282378873161E+01
              0.572157288227532E+00
             -0.822152404654166E+00
              0.121620149180919E+01
              0.781955762161120E+00
              0.287253076982018E+00
              0.843578202378100E+00
             -0.702528551566271E+00
              0.162488324088880E+01
              0.582739733010188E+00
             -0.786102104661834E+00
             -0.125343089169119E+00
             -0.371581148060674E+00
              0.358898252886651E+00
             -0.588556367506910E+00
             -0.258105392311397E+00
             -0.292401853957690E+00
              0.184312442192136E+01
              0.132080591786975E+01
             -0.147690433162506E+01
             -0.176222969765994E+00
             -0.114536259231524E+01
             -0.306323751049716E+00
             -0.481608578499505E+00
              0.252562878278084E+00
             -0.803030354137883E-01
             -0.641439505823875E+00
              0.377099120998604E+00
             -0.210780711458902E+00
             -0.170575302426802E+00
              0.198417308854291E+01
              0.348097430438581E+00
             -0.188151363566064E+01
             -0.874942519654150E+00
              0.216608046826596E+01
              0.535810827522184E+00
             -0.188382513986943E+00
              0.249560586688075E+01
             -0.392926777646161E+00
             -0.175329778972197E+00
             -0.262382463117705E+00
              0.358663089066974E+00
              0.744001221960527E+00
              0.608970987727067E-01
              0.646342455587288E+00
             -0.258969304961225E+00
             -0.893413996686058E+00
             -0.888147916916966E+00
             -0.110322085250582E+01
              0.927666854460141E+00
              0.336510111358733E+00
              0.859781300971698E+00
              0.361263023615390E+00
              0.204650044967168E+01
              0.461133773957950E+00
             -0.174535765901557E+01
             -0.747903138414338E+00
              0.817278372725179E-01
             -0.638256273379938E+00
              0.144645108035392E+01
             -0.365211385593305E+00
              0.395542324465746E+00
              0.125241391652113E+01
             -0.183598764182362E+01
              0.336080201880047E+01
              0.440006421056133E+00
              0.548227310564300E+00
              0.859856687966976E+00
              0.901590429764987E-01
             -0.515807317419323E-01
              0.743558158790563E+00
             -0.790108423507272E+00
              0.196098047166581E+01
              0.170831431290185E+01
             -0.881938988240795E+00
              0.390724023399503E+00
              0.164708812665844E+01
             -0.496145564235756E+00
              0.458470570954021E+00
              0.766634301654159E+00
              0.952840597215040E+00
             -0.169579003144823E+01
             -0.142618363117890E+00
             -0.625297074655057E+00
             -0.142553292477047E+00
             -0.152256074893876E+00
              0.138917110232459E+00
             -0.306895034708013E+00
             -0.681476835414607E+00
              0.358209591673061E+00
              0.149396204719705E+00
              0.121289973877443E+01
             -0.104672385717313E+01
              0.102207555684820E+01
              0.114034166775197E+01
             -0.230217911994743E+00
              0.172616600245804E+01
             -0.153163800984435E+01
             -0.235277841727894E+01
             -0.171807079373832E+00
             -0.154666217573357E+00
              0.312577535200909E-02
              0.176144265387426E+01
             -0.413756851495080E-01
              0.961660245616494E+00
              0.134025529871739E+01
              0.886056006607987E+00
             -0.132438141236005E+00
              0.136730907367163E+01
             -0.378939159817453E+00
             -0.881206944076748E+00
             -0.841327644958832E+00
              0.224467685303401E+00
              0.820683593327599E+00
             -0.700245765537955E-01
              0.783960263144060E+00
              0.812136670597408E-02
              0.128051162077415E+01
              0.387701256416697E+00
              0.174528499880756E+00
              0.154558080166769E-01
              0.677557718567931E+00
              0.929939987725293E+00
              0.352286577284291E+00
             -0.770790116653868E-01
             -0.123334657375280E+01
              0.683182329007027E+00
              0.473226353564892E+00
              0.769520865732677E+00
              0.694304869775263E+00
              0.824858057450210E+00
             -0.207587995859948E+00
              0.759090682292394E+00
             -0.657217226712081E+00
             -0.452880708007459E-01
             -0.120642225441947E+01
             -0.794126822631585E+00
              0.984898033444439E+00
             -0.201100907774666E+01
              0.561849552112996E+00
              0.320878216179823E+00
              0.195560553379520E+01
             -0.330294781139401E+00
              0.739662388809964E+00
             -0.261814632158870E+00
             -0.112106648886532E+01
             -0.152187044933116E+01
             -0.327653420237848E+00
             -0.206905249960593E+01
              0.206292305516325E+00
             -0.481503674787767E+00
              0.739937854823724E+00
              0.531352717580928E+00
             -0.644223569566551E+00
             -0.673258310842670E+00
              0.973156456926888E+00
             -0.129155885600645E+01
             -0.303070825385708E+00
             -0.375305570815459E+00
              0.600852045473756E+00
              0.860834096272818E-01
              0.893360166366315E-01
             -0.355065792053001E+00
              0.122345628745140E+01
             -0.132062276652400E+01
              0.169246664469116E+00
              0.136419252923928E+01
             -0.823238631221581E+00
              0.787932375503022E-01
              0.252529324023723E-01
             -0.149991980708971E+01
             -0.898358685799161E+00
             -0.538556966947841E-01
              0.696264251910029E+00
              0.775683865922511E+00
              0.106082180152951E+00
             -0.259123552276867E+00
              0.403366478173205E+00
             -0.933432263790186E+00
             -0.102153424622943E+00
             -0.119802660911310E+01
             -0.594100670339434E+00
              0.113687313643401E+01
             -0.694952514693495E+00
              0.157906038351599E+01
             -0.518788227859513E+00
              0.773919362455607E+00
              0.579237639005471E+00
             -0.136182013689257E+01
             -0.595355015649776E+00
              0.213471708338639E+00
             -0.932497670623227E+00
             -0.937687473530805E+00
             -0.201163968612128E+01
             -0.127063126156763E+01
             -0.113115049007017E+01
             -0.103198140480789E+01
              0.135899415093546E-01
              0.537822993782768E+00
              0.232750163343117E+00
              0.609291305547466E+00
             -0.133321479580782E+01
              0.293954865208226E+00
              0.620954958969813E+00
             -0.156864622530693E+01
             -0.131206311520059E+01
             -0.878689225293936E+00
             -0.728036173024366E+00
              0.342651456965545E+00
             -0.654784909964334E-01
             -0.978711376070719E+00
              0.662243803186609E+00
             -0.513873818364596E+00
              0.119100399917079E+01
             -0.200027369861725E+01
              0.143490491425664E+01
             -0.234745267396183E+00
             -0.992928430051537E+00
             -0.636749400747533E+00
             -0.185771867626929E-01
              0.111098012198821E+01
             -0.159512837533708E+01
             -0.295833885998425E+00
             -0.377260070835941E+00
              0.951679901089916E+00
              0.182249530574536E+01
             -0.226920740077806E+01
              0.209423282793218E+01
              0.902878967052763E+00
             -0.173757355775061E+01
             -0.728620234278325E+00
              0.178992634605095E+01
              0.129811524752556E+01
             -0.467559053663727E+00
             -0.165062104965765E+00
              0.407041452569437E+00
              0.175776721015929E+01
             -0.134656700238866E+01
              0.306575785232513E+00
             -0.168428213427226E+00
              0.621432270409434E+00
             -0.160516570795424E+01
             -0.686126011469279E-01
             -0.629136174983454E+00
              0.110515990283212E+01
              0.883599696570948E+00
             -0.201469432927868E+01
             -0.108116266732625E+01
             -0.477349085322141E+00
             -0.980359809877077E+00
             -0.294167101287590E+00
             -0.432222726080504E+00
              0.103481926219045E+01
              0.995733085869876E+00
             -0.555282866379407E-01
             -0.995551727171889E+00
             -0.194662077087577E+01
              0.114150314247137E+01
             -0.105954934967562E+01
             -0.838064708416105E+00
              0.167568374157239E+00
             -0.833007332081579E+00
             -0.925326966046747E+00
             -0.699880144555513E+00
             -0.114522655288981E+01
             -0.550381073823487E+00
             -0.113741585597169E+01
              0.126656298250325E+01
              0.136479112388724E+01
             -0.231959459562690E+00
             -0.487004750481873E+00
              0.669439173009216E-01
              0.965509871419620E+00
             -0.195042642477642E+01
             -0.540993815016423E+00
              0.113886104719317E+01
              0.160567996068551E+01
             -0.250087415873718E+00
              0.253446958325277E+00
              0.119430506714824E+01
              0.346068674805002E+00
              0.160636044373890E-01
             -0.889176634662219E+00
              0.342771348486297E+00
             -0.750648788448484E+00
             -0.209059827969253E+00
             -0.477101644863893E+00
             -0.334868458238907E+00
              0.529146723600396E+00
              0.180588905294178E+01
             -0.150363577833233E+00
              0.445095965215980E-01
             -0.208506390478033E+01
             -0.413285106799650E+00
             -0.821308150269711E+00
              0.519060869252197E-02
             -0.105307961572353E+01
              0.202558252183577E+01
              0.197752077241583E+01
              0.422712459551746E+00
             -0.508477738710959E+00
              0.402091340391002E+00
              0.481075149445731E+00
             -0.105142686769788E+01
             -0.192296752588550E+00
              0.427333692218626E+00
              0.288936131794462E+00
              0.116746157701245E+01
              0.915588176564992E+00
             -0.487927213048357E+00
              0.517968309507991E+00
             -0.221053015406715E+01
             -0.583025965730313E-01
              0.204520269386802E+01
              0.410050550248187E+00
             -0.482356649819096E-01
              0.621872433253196E+00
             -0.537145154967232E+00
              0.201340960501681E+01
             -0.440044069669518E+00
              0.178263015549268E+01
              0.866114527911609E+00
             -0.100492467071104E+01
              0.751749359900094E+00
             -0.642100864330926E+00
             -0.154414757553624E+01
             -0.180122238002455E+00
             -0.124078557539564E+01
             -0.119259992355503E+01
             -0.376198806239558E-01
              0.837137839249836E+00
             -0.293655479692704E+00
             -0.712998543332164E+00
              0.167452629413793E+00
             -0.150766352481988E+01
             -0.898512781826921E-01
             -0.197968211681562E+01
              0.122305725599081E+01
             -0.978952189364732E-01
             -0.111430677954789E+01
             -0.390073135815244E+00
              0.392819527186108E+00
             -0.844253329254543E+00
             -0.101386069674162E+01
              0.205298628183584E+01
             -0.626591625833027E+00
             -0.887707141134292E+00
              0.705589806538615E+00
             -0.464507818732729E+00
              0.127460649875014E+01
             -0.349629781337946E-01
              0.802543988407187E-01
              0.246574188219024E+01
             -0.230955331804605E+00
             -0.875630387218304E+00
             -0.106432131694230E+01
             -0.118836033194359E+01
             -0.844229249867759E+00
              0.674614369317798E+00
              0.671578969521770E+00
              0.636486943935830E+00
              0.170153092927286E+01
              0.107076532924734E+00
              0.505668127694532E+00
             -0.134693580300912E+01
              0.397376028422682E-01
             -0.391296854888756E+00
             -0.617520912696889E+00
             -0.122004451802839E+00
              0.757570352075325E+00
              0.863805348023389E+00
             -0.489951202856319E-01
              0.274802641704708E+00
              0.637817499841452E+00
              0.805887745542552E+00
             -0.525092578916293E+00
             -0.223640191373715E+00
              0.208211937653706E-01
             -0.593399073843962E+00
             -0.949705053884742E-01
             -0.865520887794206E+00
              0.177463137275378E+01
              0.139917423494297E+01
             -0.387267090507768E+00
              0.358417664524272E+00
             -0.119249154231026E+00
             -0.687919103374942E+00
              0.841069510396376E+00
             -0.212634779805795E+00
              0.830368165698974E+00
             -0.110473632072813E+01
              0.404128726136983E+00
             -0.178338325516849E+00
             -0.123175798344672E+01
             -0.546095874297730E+00
              0.549225255183515E+00
             -0.221430016874053E+01
              0.880318869106581E+00
              0.107358724274547E+01
             -0.219118771674908E+00
             -0.160834202570670E+00
             -0.776051664215798E-01
              0.609531743886869E+00
             -0.762878569262854E+00
              0.713147468532906E+00
              0.734262877552517E+00
             -0.211468651673078E+01
             -0.823866376498700E+00
              0.544263420130397E+00
             -0.289004696739339E+00
              0.108235166347310E+01
             -0.140775338696671E+01
             -0.188947493280633E+00
             -0.907944232156437E+00
             -0.294758357218943E+01
              0.179977485942433E+01
             -0.137709610621904E+01
             -0.151112858099038E+01
              0.147626055594271E+00
              0.294203784664181E+01
              0.146780620334668E+00
             -0.714418324470572E+00
             -0.256799641303420E-01
             -0.990125297644773E-01
             -0.198338699108348E+01
             -0.127895650407860E+01
              0.194525676873737E+01
             -0.251723046791893E+00
             -0.833505562106641E+00
              0.112786331445898E+01
             -0.750390700973429E+00
              0.779059184933576E+00
              0.111105694085314E+01
             -0.124277821758504E+01
             -0.639952683995046E+00
             -0.738225794125510E+00
             -0.376762882767093E+00
             -0.454642262216395E+00
             -0.389564011564003E+00
              0.438451732550353E+00
             -0.800088152903045E+00
              0.636920631710496E+00
              0.127274762910632E+01
             -0.187997549630288E+00
             -0.455358961168258E+00
              0.332445547952034E+00
              0.124344840109600E+01
              0.124390103659263E+01
              0.199415022808886E+00
             -0.218862936223331E+00
             -0.231531226927989E+00
             -0.121491122157321E+01
              0.915447926235341E+00
             -0.575945874791856E+00
              0.503406311311656E+00
             -0.302756518193542E+00
              0.608705558348808E+00
              0.391404564937694E+00
             -0.186688360973196E+01
             -0.587187562555702E+00
             -0.178946698667443E+01
             -0.900059034433996E+00
              0.116451790730814E+00
             -0.441400982279566E+00
              0.786427779622276E+00
             -0.643214605851412E+00
              0.681619415428951E-01
              0.170984443725160E+00
              0.163160758640560E+01
              0.843044905997661E+00
             -0.721444901669523E+00
             -0.294151923658030E-01
              0.337610184921285E+00
              0.846830511153373E+00
             -0.869870607632262E-02
              0.127180376835952E+01
              0.639012050178922E+00
              0.205024188622578E+01
              0.885173040915808E-01
              0.143879202440804E+01
             -0.622078700754710E+00
             -0.899915534967832E+00
              0.766114535150511E-01
              0.239448271923209E+00
              0.544383885812982E+00
             -0.412829047096917E+00
             -0.263548491342518E+00
              0.521463805127267E+00
             -0.106924378430311E+01
             -0.133682078513342E+01
              0.180242342869721E+01
             -0.142980572675761E+00
             -0.865573344998543E+00
             -0.110760148887791E+00
             -0.319604258383947E+00
              0.960208372322606E+00
              0.820205601495948E+00
             -0.454423061665246E+00
             -0.143787558346866E-01
             -0.601376096328362E+00
             -0.800674812199841E+00
             -0.572221169195178E+00
             -0.222804305197667E+01
              0.102921541827072E-02
             -0.149349708390144E+01
             -0.133708656436595E+01
             -0.875118403465232E+00
              0.487173866648149E+00
             -0.885152819109267E+00
              0.534672459204788E+00
             -0.145291405157474E+01
              0.186173967726244E-02
             -0.967168225836160E+00
              0.163584955858716E+00
              0.176259035003197E+00
              0.775851094727770E+00
             -0.459864199190829E+00
             -0.430586450788930E+00
              0.708961521153642E+00
              0.136422040364642E+01
              0.734684954808488E+00
              0.237700342726381E+00
             -0.168078623595262E+01
             -0.342308454746001E+00
             -0.635425075654760E+00
             -0.141053927309011E+01
              0.982209282599900E+00
             -0.779652728016643E+00
             -0.168881583833264E+00
             -0.609085570562758E+00
             -0.227380450746955E+01
              0.127553662193624E+01
             -0.407185031663966E+00
              0.889311329136794E+00
             -0.169295705092464E+01
              0.148641612525380E+01
              0.135501415616053E+00
             -0.608301614948790E+00
              0.212472224978804E+00
             -0.474456762130361E+00
             -0.145772715391808E+01
              0.399230152214159E+00
              0.843923214648522E+00
             -0.162904425053778E-01
             -0.789662405504348E+00
             -0.342508868723867E+00
              0.460915938479841E+00
              0.821091575916808E+00
              0.142057503340717E+01
              0.519957228056521E+00
             -0.528420560218189E+00
              0.223385962819787E+01
              0.515227506924432E+00
              0.104593759012069E+01
             -0.366151435262175E+00
              0.680819105567997E+00
              0.518065377471064E+00
             -0.140486219973309E+01
             -0.506134257538590E+00
             -0.909261611659138E+00
             -0.906826418204850E+00
             -0.259612170086038E+00
             -0.219253235074127E+00
             -0.101565515695062E+01
             -0.254632846793533E+01
             -0.622211586370418E+00
              0.327536143197031E+00
              0.137267790316351E+00
              0.328392496701420E+00
              0.949088412695232E+00
              0.275575962825023E+00
              0.721047657147659E+00
             -0.999911060956967E+00
              0.988129868349013E+00
             -0.930030310225979E+00
             -0.155104926339200E+01
              0.457025595127352E+00
             -0.940532855284635E+00
             -0.918800994995105E+00
             -0.363073533965906E+01
             -0.173349968415336E+00
              0.190725952725253E+01
              0.949840692002227E+00
             -0.229719190968854E+00
             -0.242413299534489E+00
              0.948573160919427E+00
              0.146212576610941E+01
             -0.890747695187527E+00
             -0.293281296693548E+00
             -0.814383294899906E+00
             -0.765400882595937E+00
             -0.689773019888186E+00
              0.271504405664419E+00
              0.160713972671476E+01
             -0.149248683521818E+01
             -0.123672724025070E+01
              0.750983698553576E-01
             -0.325263605627999E+00
             -0.402681140931910E+00
             -0.205243355395167E+01
              0.139278691432710E+01
              0.462776888967893E+00
              0.197730569840674E+00
              0.119170518879655E+01
             -0.736809827695873E+00
              0.764522358194798E+00
              0.659217367520081E+00
              0.606888710569669E-01
             -0.186522932410052E+00
              0.209257078219126E+00
             -0.351657859615078E+00
              0.117792367747520E+01
             -0.925703674504319E+00
              0.103943666386018E+01
              0.216008803966357E+00
              0.368996485212726E+00
              0.454498844812425E+00
             -0.185359173682544E+01
              0.212351714586806E+00
             -0.150991105986703E+01
             -0.110764033578005E+01
             -0.109700230078145E+01
             -0.117816524766250E+01
              0.911103984138251E-02
              0.411152272734128E+00
              0.113126985230577E+01
              0.174501240089253E+00
              0.332641861986641E+00
             -0.159182242680287E+01
             -0.640041424926258E+00
              0.737545944939691E+00
             -0.567545830225438E-01
             -0.650034179369152E-01
             -0.219193896333417E+00
              0.823182686444383E+00
             -0.207194826764825E+01
              0.303373978503280E+00
              0.497552532234023E+00
              0.904554841943985E+00
              0.855061647685097E+00
             -0.129533159573823E+01
              0.343245207654169E+00
              0.139793207216259E+00
              0.163948203290502E+00
              0.110403284375902E+00
             -0.448345390509747E+00
             -0.962120093281763E+00
              0.400226208217381E+00
              0.133236972520121E+01
             -0.429430888643267E-01
              0.303963349849123E+00
              0.282768903071823E+00
             -0.694761407619096E+00
             -0.723198396829774E+00
             -0.278342976488813E+01
             -0.879335141441717E+00
             -0.130650843007264E+01
             -0.152524434821846E+00
             -0.153787471988041E+01
              0.172573083464823E+01
             -0.757743211659966E+00
             -0.124556999426326E+01
             -0.357872768905223E+01
              0.153794653072327E+01
              0.332507191433689E+00
              0.175184589580386E+00
             -0.138996655891089E+01
              0.100988664124158E+00
             -0.364373461026009E+00
             -0.717423639376578E+00
              0.188817175315155E+00
              0.731088084709148E+00
              0.123510717887049E+00
             -0.453501301982847E+00
              0.662918423156142E-01
              0.225839432967501E-01
              0.271159206002542E+00
             -0.151516843795210E+01
              0.166263372582199E+01
             -0.947345212994151E+00
             -0.600222232452271E+00
             -0.114518104717763E+01
             -0.245575674553813E+01
              0.121120901238079E+00
             -0.127914520269197E+01
             -0.437255429935564E+00
              0.710114285437466E+00
             -0.604509956720843E+00
             -0.231894942109934E+00
             -0.289276524663893E+00
             -0.486507078012895E+00
              0.678463463476158E-01
              0.117514791326567E+01
             -0.116421771264567E+01
              0.234073425313208E+01
             -0.549897411262982E+00
              0.750275191816623E+00
             -0.379421517499599E+00
              0.285371074141397E+00
             -0.278843854380662E+00
              0.102811919974893E+01
              0.144456776303193E+01
              0.413378356195339E+00
              0.105424764601645E+01
             -0.696147803937074E+00
             -0.153715959355492E+00
             -0.551763834291940E+00
              0.144648409190860E+01
              0.124542038530556E+01
              0.914744566266357E+00
             -0.304791525602738E+00
             -0.593809167088890E+00
              0.552924210481617E+00
             -0.646435385558517E+00
             -0.329784068213920E+00
             -0.141770528553791E+00
             -0.790630919952581E+00
              0.112943954895056E+01
             -0.233706211005319E+00
              0.824473613208652E+00
              0.478600319377976E+00
              0.357594249669820E+00
             -0.779750370912103E+00
              0.599449816783714E+00
             -0.316883564896342E+00
             -0.167752508280753E+00
             -0.256275419130230E-01
             -0.111284585806524E+01
              0.177473541572414E+01
             -0.626861857771490E+00
              0.377630159483822E-02
              0.548532576642812E+00
              0.467825570240885E+00
              0.174988195924860E+01
             -0.497784680634946E+00
              0.172032531213122E+01
              0.152654686106861E+01
             -0.213573350038493E+01
              0.176078243384908E+00
             -0.422818212729980E+00
              0.260066181573954E+00
              0.103465552184999E+00
              0.470269270559687E+00
              0.145784982086818E+01
              0.223509601940193E+01
             -0.168795761742710E+01
              0.173823359671342E+01
             -0.227080796003324E+01
             -0.193255490270400E+01
             -0.324817991622213E+00
              0.270149176870973E-01
              0.177618095410641E+01
              0.756052865499234E+00
             -0.330264221740450E+00
             -0.193185998797410E+01
              0.153181849188354E+01
             -0.955769462895194E+00
              0.369267471694599E-01
             -0.107222654862136E+00
              0.296279100544349E+01
             -0.529535551997180E+00
             -0.239492565514646E+01
              0.696670031508734E+00
             -0.369981247426963E+01
              0.295955830437373E+00
             -0.875177369046107E+00
             -0.394061082330997E+00
             -0.600917493534511E+00
             -0.135345357772799E+01
              0.846883133060839E+00
             -0.818612589214058E+00
             -0.307495170227787E+00
             -0.172749930662952E+01
             -0.106293383304179E+00
             -0.122494397013988E+01
             -0.174782174147910E+01
             -0.247164535443541E+01
              0.191098727906701E+00
             -0.822584679768894E+00
              0.189491215738242E+00
             -0.296395893277738E+00
             -0.188363641386889E+01
             -0.145933093734815E+01
             -0.128679663941151E+01
             -0.130883598260374E+01
              0.119155141436030E+01
              0.159493206769163E+00
             -0.112110612817443E+01
             -0.551991610577730E+00
             -0.615611958777352E+00
              0.930309482716113E+00
             -0.716216713636996E+00
             -0.131483183814820E+00
             -0.685284821256527E+00
             -0.903794246504737E+00
             -0.933480867463885E+00
              0.929844359604746E+00
             -0.294350623959939E+00
             -0.208107823225262E+01
              0.178380888916343E+01
              0.104600336555346E+01
              0.849801418208713E-01
             -0.182995175852306E+01
             -0.170817078312986E+01
              0.142305414427655E+00
              0.204910127408988E-01
             -0.767718425636374E+00
             -0.102436498654402E+01
              0.711522681923274E+00
             -0.126161153345427E+00
              0.616067450232816E+00
              0.108378897863297E+01
              0.807330816974190E+00
              0.582079931166223E+00
              0.504478658049865E+00
             -0.506217154401238E+00
             -0.336415731236002E+00
             -0.419534892306618E+00
             -0.862460674204922E+00
             -0.108585257510082E+01
             -0.139787460413285E+01
             -0.827241033579143E+00
             -0.278832889425448E+00
             -0.171373038504236E+01
             -0.366202197826341E+00
              0.786194637327959E+00
             -0.188431166446348E+01
              0.803885829226195E+00
              0.636893356217539E+00
             -0.163420180150501E+01
             -0.127780761754792E+01
             -0.508124975421252E+00
              0.308460483618545E+00
             -0.936483850250088E+00
              0.170927743190789E+01
              0.150982662222099E+01
             -0.175460221356340E+01
              0.981716378266324E+00
              0.826456869087114E+00
              0.222518595363982E+00
              0.444841336210060E+00
             -0.967947670270321E+00
             -0.354333196956781E+00
              0.138305480962275E+00
              0.460295061559127E+00
              0.957297240084012E+00
             -0.123560349827310E+01
             -0.233210653347525E+00
              0.378797718134883E+00
              0.170183473984593E+00
             -0.767338480737277E+00
              0.418169084997199E+00
             -0.579901501561826E+00
             -0.402944184177630E+00
             -0.579224153522961E-02
             -0.140607149447084E+01
             -0.227250464636963E-02
             -0.244953773323134E+00
             -0.346148063253832E+00
              0.319825594604177E+00
             -0.121351607712844E+01
              0.131574206441574E+01
             -0.499915789713032E+00
             -0.304617600715905E+01
             -0.196476300396431E+01
              0.803049587595232E+00
             -0.930279370156660E+00
             -0.491644422581771E+00
             -0.557205532571969E+00
             -0.428637150336195E+00
             -0.235864221805332E+01
             -0.505209576716528E-01
             -0.141802547708443E+01
             -0.753995418091280E+00
              0.482438054228348E+00
              0.178584675997012E+01
              0.922649119941348E-01
              0.587950595913553E-01
              0.136824380774598E+01
             -0.128587729456058E+01
              0.661621502566563E+00
              0.148196272228463E+00
             -0.117499373227421E+01
             -0.655560237016628E+00
              0.456638659481113E+00
              0.659292918223353E-01
              0.367209414198059E+00
              0.323162074519049E+00
             -0.537809619460242E+00
             -0.727548260093162E+00
             -0.113987402030808E+01
              0.113054117238913E+01
             -0.154619970906627E+01
             -0.113701305241639E+01
              0.333008111999489E+00
             -0.193921996266889E+01
              0.512075279086107E+00
              0.135313853997021E+01
             -0.248692579785111E+00
              0.422425865333581E+00
             -0.739861883695372E+00
             -0.502761639124997E+00
              0.244345603040912E+00
              0.825884022994374E+00
             -0.843667309915282E+00
              0.528922255726248E+00
             -0.320541338981936E+00
              0.121173929293377E+00
              0.444780234259179E+00
              0.245794336410470E+00
             -0.259673228162164E+00
             -0.204948014355635E-01
              0.308928936435041E+00
              0.630970077870911E+00
             -0.161347483215185E+01
             -0.262319759555609E-01
              0.122233026591710E+01
             -0.204033676820451E+01
              0.753875329242628E+00
             -0.261270820105161E+01
             -0.249343251638407E+00
             -0.330201630326274E+00
             -0.696354512479083E-01
             -0.272845534152700E+00
             -0.634014923412192E+00
             -0.220592330126028E+00
              0.313449917885667E+00
             -0.560478655927001E+00
              0.250800781172396E+00
              0.205674765516995E+01
             -0.132033633948122E+01
             -0.584684732675881E+00
              0.936161088575249E+00
              0.480888303114948E+00
              0.950312922363860E+00
              0.434160722582313E+00
              0.423029343965092E+00
             -0.331628319763850E+00
             -0.112509712132285E+01
             -0.101118445859656E+01
             -0.755582746591199E+00
              0.116580958585923E+00
             -0.961749606595934E+00
             -0.269596534457080E+00
              0.144256699582118E+00
              0.557718301356410E+00
             -0.158702908916095E+00
              0.133306810967469E+01
             -0.145863551975863E+01
             -0.351868349303022E-01
             -0.171480019200550E+00
              0.715421453735101E+00
             -0.987763197777285E+00
             -0.638649171679498E+00
              0.348624563464788E+00
              0.106082740481519E+01
              0.170124173789347E+01
              0.710231420269795E+00
              0.104158646049408E+01
             -0.576143873268810E+00
              0.143489916228353E+01
              0.144884766126779E+01
             -0.535189820277324E-01
              0.728482201303895E+00
              0.869226089142247E+00
             -0.479715058514573E+00
              0.289465079413089E+00
              0.149554911499891E+01
             -0.497441764056685E+00
             -0.171232073001065E+00
             -0.143078758440078E+01
              0.526616106479094E+00
             -0.316452598123071E+00
              0.482204902290473E+00
              0.549050206711961E-01
             -0.901237668810655E+00
              0.104244671807868E+01
              0.903849390522685E+00
             -0.697084352929406E+00
              0.388074726028392E+00
             -0.134508038409603E+01
             -0.123808102365997E+01
              0.567368331830364E+00
             -0.156149408984202E+01
             -0.779033808367709E+00
              0.501582081043388E-01
              0.195063488139366E+01
             -0.510723383132802E+00
             -0.238679816434713E+00
             -0.445250478010309E+00
              0.255842858936409E+01
              0.428123031346150E+00
             -0.962390422458212E+00
              0.159933832185285E+01
              0.142084327530097E+01
              0.747320224033080E+00
              0.180947698279732E+01
              0.196345985150087E+01
             -0.102492449161305E+00
             -0.671941508671256E+00
             -0.591257245426373E+00
              0.618169905214440E+00
              0.883400528150140E+00
             -0.154817185070892E+00
             -0.542829491709417E+00
             -0.131040143179190E+01
             -0.501061602472981E+00
             -0.105726581313614E+01
              0.762028989966821E+00
              0.388384790551262E+00
              0.136849664549287E+01
              0.282003792582444E+00
             -0.533678651185614E+00
             -0.200260000180552E+00
              0.915014430872410E+00
              0.243380861095595E+00
              0.137558898498793E+01
              0.127153041955923E+01
             -0.214133237589248E+00
             -0.194424515043514E+00
             -0.229813194080672E+01
              0.113321177614191E+01
             -0.236784787445981E-01
              0.128544021056358E+01
             -0.564051256071578E+00
             -0.149479786055730E+01
              0.439281034315253E+00
              0.164748592571311E+01
             -0.579751237341445E+00
              0.152157984511411E+01
             -0.163834684656770E+01
             -0.586057740795740E+00
             -0.193510777495049E+01
              0.396708633436098E+00
              0.129911046079327E+00
              0.173615625467403E+00
             -0.141046072244828E+01
              0.209734581084986E+01
              0.122111849703465E+01
              0.141626322322340E+00
             -0.120477982046374E+01
              0.465526472882841E+00
             -0.440854179560822E+00
             -0.321106637233171E+00
             -0.603038694365122E+00
              0.390711705587018E+00
             -0.360904234010400E+00
             -0.420356230721968E+00
              0.526483753789645E+00
              0.535247907085011E+00
             -0.204209235656425E+01
              0.447806493875420E+00
              0.150450728019817E+01
              0.966894647656249E+00
             -0.308109192224195E+00
             -0.275371084126599E-01
             -0.839024481313562E+00
              0.128199109613295E+01
              0.228337893642649E+00
             -0.765767290173498E-01
             -0.129622888765015E+00
              0.248704794243958E+01
             -0.146005357128706E+00
              0.552357546014125E+00
              0.168269549156277E+01
              0.220717850635462E+01
              0.136593973569923E+01
              0.908984907698030E+00
             -0.143949265591470E+01
             -0.105080523704810E+01
              0.825777276488551E+00
              0.810260389675141E-01
              0.700002523249168E+00
              0.299688912224317E+00
              0.146294503753101E+01
             -0.181135663934571E+01
             -0.111719926080895E+01
             -0.248267996567762E+00
             -0.197962837061409E+01
              0.432540113893032E+00
              0.103123874711314E+01
              0.598843230563144E-01
             -0.470051506961889E+00
              0.482102662655462E+00
              0.308484314960511E+01
              0.710796554652806E+00
              0.403060993860011E+00
             -0.109030050074298E+01
             -0.134441821822891E+01
             -0.307412227161417E+00
              0.644882876776560E+00
             -0.134250369853742E+00
              0.570394133339055E+00
              0.795334026474084E+00
             -0.141761882690289E+01
              0.614653572279526E+00
              0.810279212001388E+00
              0.130302290565608E+01
             -0.225182458331401E+00
              0.105703599656252E+00
             -0.161213135910481E+00
             -0.102408611367000E+01
             -0.166013141731591E+01
              0.174922936003994E+01
             -0.230994469820488E+00
             -0.122521415592669E+01
              0.169397590643403E+00
             -0.681295100049764E+00
              0.195127618471845E+01
             -0.509223302614537E+00
             -0.853036984830988E+00
              0.825168240167281E+00
             -0.349567223848700E+00
              0.105825659610923E+01
              0.188058004549791E-01
              0.212650957845363E+01
              0.118275845603643E+01
              0.244575553966649E+00
             -0.890728776688217E+00
              0.647962025894641E+00
             -0.123694801361298E+01
             -0.111493448085294E+00
              0.146192867849743E+01
             -0.577093570387892E+00
             -0.994955179887361E+00
             -0.512223606212220E+00
              0.117624324770223E+01
              0.277154076919925E+00
             -0.186215709882802E+01
              0.777638579240527E+00
              0.169123343934617E+00
              0.243571532914087E+00
             -0.110299966466814E+01
              0.217219296824460E+00
              0.785394927908521E+00
              0.106505854608006E+01
              0.146783516742100E+01
              0.784237495931403E+00
              0.178081932452034E+00
             -0.124360886039031E+01
             -0.958009767234355E+00
             -0.149796545650477E+01
             -0.304286708425067E+00
              0.774953666075417E+00
             -0.143079398964714E-01
              0.118354515959762E+01
             -0.725761503731619E+00
              0.394161845243907E+00
             -0.499715573410751E+00
             -0.611046041502024E+00
              0.133274487213744E+01
              0.123254179290535E+00
              0.140926862011624E+01
              0.126328044771251E+00
              0.458426909030435E+00
             -0.364474486861642E+00
              0.137535853292340E+01
             -0.352607943036346E+00
             -0.114723902389123E-01
             -0.177603910210241E+01
             -0.168515486189973E+00
              0.158956621266972E+01
              0.148122432199918E+01
              0.559706750100950E+00
             -0.354751968041293E+00
              0.102294234989862E+00
             -0.519683795654187E+00
             -0.408001032500287E+00
              0.202992736200332E+01
              0.154703884151594E+00
             -0.648578506303828E+00
             -0.243028135195038E+01
             -0.100528330070253E+01
             -0.858563410664446E+00
             -0.140858720068599E+01
             -0.134885305088680E+01
             -0.162060155561936E+01
             -0.102073099688500E+01
             -0.648453561229440E+00
             -0.108485151329187E+01
              0.100708343064036E+01
             -0.418284515537104E+00
             -0.197240479205173E+01
              0.949708482278958E+00
             -0.754899512912856E+00
             -0.180372588825764E+01
              0.229439275517915E+01
             -0.571335896964167E+00
              0.351385074729736E+00
              0.870792059188352E+00
              0.274523720317100E+00
              0.583513367162126E+00
              0.230969303710542E-01
              0.246339698488804E-01
             -0.284511146695219E+00
             -0.166365322328866E+01
              0.248264953929850E+00
             -0.275081918103683E+01
              0.161830126252237E+01
             -0.916875344414612E+00
             -0.410837856758671E+00
             -0.463450163302497E+00
              0.482143944982094E+00
             -0.370239684582040E+00
              0.655849199085868E+00
             -0.132524310959329E+01
              0.833634760243446E+00
              0.960902631300915E+00
              0.223779422984460E+00
              0.202692207764332E+00
              0.487373178630688E+00
              0.220214003636858E+00
              0.689844210254876E+00
             -0.111096305185910E+00
             -0.165833029618108E+01
              0.220295542941600E+00
             -0.772437986806038E+00
             -0.687232230137376E-01
              0.124906920329657E+01
             -0.182042625608167E+01
              0.410764832288537E-01
              0.732401270107381E-01
              0.211863979302347E+00
              0.699675543058989E+00
             -0.289040478883488E+00
              0.191388724838050E+01
              0.862569306429228E+00
             -0.342802102070128E+00
             -0.214362477441957E+00
              0.139485735799852E+00
              0.179105080579943E+01
             -0.112640632825385E+01
             -0.230699364999293E+01
              0.656693390507171E+00
             -0.179861811028190E+00
             -0.344310340949378E+00
              0.434107298453926E+00
              0.172876275362722E+01
              0.959885623360307E+00
             -0.390049327720071E+00
             -0.122090971535874E+01
             -0.277578145956667E+00
              0.627988801517094E+00
             -0.401919673865327E+00
             -0.172560830457463E+01
             -0.199887501276496E+00
             -0.221060923055018E+01
             -0.116657833979582E+01
              0.196414011113835E+01
             -0.118299241241280E+01
             -0.162130924330992E+01
             -0.121123906210707E+01
             -0.901275237858068E+00
              0.767820364282498E+00
              0.193447029140350E+01
             -0.207727073983251E+00
              0.607546685683280E+00
             -0.454420306706941E+00
             -0.154478333949388E+01
              0.117467120779052E+01
             -0.109811171507852E+01
              0.581002723206232E+00
              0.665925304920474E+00
             -0.352968630835768E+00
              0.864454041911364E+00
              0.890661991998563E+00
              0.272008679601858E+01
             -0.244325704860174E+00
             -0.125947196781365E+01
             -0.151303871279496E+01
             -0.426420104556709E+00
             -0.927756643455233E+00
              0.214054913949140E+01
             -0.102766571358624E+01
              0.229370696865201E+00
              0.628964473590923E-01
             -0.453825022242175E+00
             -0.194302237809634E+01
             -0.151076826319573E+00
              0.228322747441158E+01
              0.479914210575914E+00
              0.174655468750908E+00
             -0.131864559256726E+01
             -0.124096241245551E+01
             -0.392784903067802E+00
              0.103065330740344E+01
             -0.602432559398727E+00
              0.230210499520003E+01
             -0.106210021079159E+01
              0.435302473446315E+00
             -0.327914096660948E+00
             -0.140642802165587E+01
              0.151518574090205E+00
             -0.128190764012689E+01
             -0.168328001659271E+01
              0.241692282454430E+00
              0.311732820572574E-01
              0.111595876267126E+01
              0.609031283155803E+00
             -0.794820605978207E+00
              0.508480284051533E+00
             -0.199610580407887E+01
             -0.108900996308969E+01
              0.212311629777874E+01
              0.999292619057812E-01
             -0.130728984261003E+00
             -0.578321708159555E+00
             -0.988983127976972E-02
             -0.265665163288919E+00
              0.207750445964381E+01
              0.933867253080564E+00
             -0.206790437474849E+00
             -0.137486125284170E-01
             -0.878500194113151E+00
             -0.309865978224320E+00
             -0.142790364457209E+01
              0.117316007074940E+01
              0.148969795252122E+00
              0.185520501328632E+00
              0.414896751414526E+00
             -0.304021451521562E+00
             -0.512026355813438E+00
              0.170175037407275E+00
             -0.253113331314967E+01
             -0.249881853485991E+00
             -0.205471040419179E+00
             -0.143230153558202E+00
              0.113172128948763E+01
              0.146218939505838E+01
              0.400527404366052E+00
             -0.212560079005912E+01
              0.145822103819903E+01
             -0.549021911465921E+00
             -0.847084615603347E+00
             -0.199377275187312E+01
             -0.634740670781904E+00
              0.141813980370108E+01
              0.752690855924346E+00
              0.371136203837626E+00
              0.795145411183100E+00
             -0.127189243491809E+01
             -0.111056632078382E+01
              0.142073650723423E+01
              0.949042469898893E+00
              0.108313973912122E+01
              0.165050143814066E+00
              0.234377199622911E+00
              0.120726120516333E+01
              0.226243134045603E+01
             -0.420957981371567E+00
              0.913650517273776E+00
             -0.628621019363408E+00
             -0.999596533295003E+00
             -0.785482162760542E+00
             -0.748512267993548E+00
             -0.318108101835948E+00
             -0.109729037896020E+01
             -0.451150551778074E+00
             -0.295836983839747E+01
              0.714280533643116E+00
              0.644117850474983E+00
             -0.691701666434452E-01
             -0.851202320599738E+00
             -0.434579276879659E+00
             -0.127692453788044E+01
              0.142100699019636E+00
              0.181250132839523E+01
             -0.424227257259259E+00
             -0.428144764465904E+00
              0.432284533301168E+00
             -0.114570160052635E+01
              0.197193961568500E+01
              0.365791155816801E+00
              0.161579913783310E+00
              0.119533134098887E+01
             -0.119722115206997E+00
              0.134422759393225E+01
              0.447885049731817E+00
             -0.589520995259116E-01
              0.310729321524289E+00
             -0.213893564062817E+00
              0.154912376057234E+01
              0.164475513797733E+00
              0.472863195290575E+00
             -0.198319091364988E+00
              0.242552253162819E+00
             -0.214933159409073E+01
             -0.817998284524302E+00
             -0.112193361473155E+01
              0.116603270687808E+01
             -0.802691667762722E+00
             -0.128798454149707E+01
              0.136370336596556E+01
             -0.323056241750325E+00
              0.952353406249137E+00
             -0.204650475844998E+01
              0.428412611209401E+00
              0.100892728936964E+00
              0.139206649674644E+00
             -0.297524911763759E+00
             -0.145278719094224E+00
              0.114487236897858E+01
              0.653850340087052E-01
             -0.119619531697280E+01
             -0.486411474789231E+00
              0.442779351263703E+00
             -0.264163923923034E+01
             -0.200402220126454E+01
              0.217441627787895E-01
              0.360764231895230E+00
             -0.114788156949541E+01
              0.115535562523288E-01
              0.236235567631958E+01
              0.689640770685502E+00
             -0.123515809841281E+01
              0.178568688337513E+00
             -0.241232793472886E+00
              0.293082901374978E+00
             -0.807673290809491E+00
              0.512241471214357E+00
              0.539169306442654E+00
             -0.200857775577762E+00
              0.257161822343346E+01
             -0.102610955125676E+00
             -0.714427460254795E+00
              0.702887386125717E+00
              0.979042739180953E+00
             -0.745349507804160E+00
             -0.211418485786536E-01
              0.223418677878285E+01
             -0.377810070961040E-01
              0.118728374084492E+01
              0.378255225411351E+00
             -0.167570250477030E+00
             -0.357521205148002E+00
              0.110836168163331E+01
             -0.135892383638102E+01
             -0.539653452835145E-01
             -0.453063158253366E+00
             -0.929896033003622E+00
              0.256111057345535E+00
              0.553614248495638E+00
             -0.208582476552301E-01
             -0.438150839464289E-01
             -0.939627188202564E+00
              0.355091412177188E+00
             -0.306332135233722E-01
             -0.507550186470187E+00
             -0.469413148069094E+00
              0.403050372788224E+00
             -0.131606430587485E-01
             -0.882437200459618E+00
             -0.245059077861645E+01
              0.139963781689081E+00
              0.360115291034909E+00
             -0.110295410096090E+01
             -0.566341598582365E+00
              0.187714238706201E+01
              0.281373561693659E+00
              0.998730020554875E+00
              0.241016805130936E+00
              0.904140229028093E+00
              0.527138986456013E-01
             -0.911213356499749E+00
             -0.250599333686296E+00
              0.126817462712883E+00
              0.705785556371766E+00
              0.172715138936073E+01
              0.112674394085512E+01
              0.676755405568255E-01
              0.252657113981686E+00
              0.138237062558839E+01
              0.643414008220616E+00
             -0.160013555462068E+01
             -0.637639732132042E+00
              0.266111250758156E+00
              0.231540515029543E+00
              0.579948553137993E+00
             -0.117746041804953E+01
              0.123354095005830E+00
              0.936274622534798E+00
              0.111885060794528E+01
             -0.971391069604843E+00
              0.530885816313447E-01
             -0.609024288743374E-01
             -0.479917828716304E+00
             -0.591399763014275E+00
             -0.275114523084364E+00
             -0.263285222144045E+00
              0.254535142581178E+00
              0.959243678820516E+00
             -0.744747470021386E+00
              0.185078739612290E+01
              0.774206003739236E+00
              0.595933196916151E+00
              0.844664046860641E+00
              0.579041677833627E+00
              0.788335301645953E+00
              0.126895180442161E+01
             -0.108276862911411E+01
              0.143835302660008E+01
             -0.259472961310067E+01
              0.722728296769752E+00
             -0.240836519481245E+01
              0.184229724735069E+01
              0.178864553326710E+01
             -0.193143166466695E+00
             -0.107949533555656E+01
             -0.979093782188734E+00
             -0.124053239083573E+01
             -0.149532602317496E+01
              0.124848838834802E+01
              0.981723713978963E+00
              0.558475742536383E+00
              0.599864960735749E+00
              0.100963357898659E+01
             -0.934061453936389E+00
             -0.335326730300025E+00
              0.121922050857575E+01
             -0.271849343217892E+00
              0.112885773014765E+01
              0.176519127301461E+01
             -0.722936365107956E-01
             -0.172260728538133E+01
              0.111915763483609E+00
              0.411098130771130E-01
             -0.239501125099940E+00
              0.787533147163320E-01
             -0.148309836076053E+01
             -0.211699660325122E+00
              0.307504536222207E+00
              0.311056705367510E+00
              0.113964386626992E+01
             -0.954049400796739E+00
              0.120341100006546E+01
             -0.877247068929961E+00
              0.612146127812997E+00
              0.996351152914232E+00
 
 BEEF-vdW xc energy contributions
           1 :   -16.1628226744685     
           2 :    13.4234348354043     
           3 :   -9.45981133119747     
           4 :    5.70998495695555     
           5 :   -2.85305545034834     
           6 :    1.01956070509238     
           7 :  -5.980282713195706E-002
           8 :  -0.312964793735436     
           9 :   0.404708632576718     
          10 :  -0.449571175514389     
          11 :   0.540901244397087     
          12 :  -0.647691442362611     
          13 :   0.696336004766444     
          14 :  -0.650839847484676     
          15 :   0.524747356461898     
          16 :  -0.358799406759438     
          17 :   0.197550044855571     
          18 :  -7.657561259760115E-002
          19 :   8.853702576072209E-003
          20 :   1.383382821028434E-002
          21 :  -1.091788399387283E-002
          22 :  -2.635001728990005E-004
          23 :   8.649233329716566E-003
          24 :  -1.208958994905629E-002
          25 :   1.241038633760638E-002
          26 :  -9.811029577370789E-003
          27 :   5.644797016877590E-003
          28 :  -7.591054973747902E-003
          29 :   1.890924371534553E-002
          30 :  -3.219730346262750E-002
          31 :   -2.09262706141797     
          32 :   -1.31080381536076     

     Writing output data file ./pwscf.save/
 
     init_run     :     77.25s CPU     79.82s WALL (       1 calls)
     electrons    :    666.76s CPU    715.96s WALL (       1 calls)
     forces       :     36.24s CPU     38.45s WALL (       1 calls)

     Called by init_run:
     wfcinit      :      2.31s CPU      2.38s WALL (       1 calls)
     potinit      :     61.68s CPU     63.38s WALL (       1 calls)
     hinit0       :     11.34s CPU     11.49s WALL (       1 calls)

     Called by electrons:
     c_bands      :    110.00s CPU    111.05s WALL (      16 calls)
     sum_band     :     52.90s CPU     62.54s WALL (      16 calls)
     v_of_rho     :    397.80s CPU    423.73s WALL (      17 calls)
     newd         :     22.64s CPU     32.45s WALL (      17 calls)
     PAW_pot      :      2.17s CPU      2.18s WALL (      17 calls)
     mix_rho      :    135.67s CPU    140.57s WALL (      16 calls)
     vdW_kernel   :     33.46s CPU     33.46s WALL (       1 calls)

     Called by c_bands:
     init_us_2    :      1.66s CPU      1.68s WALL (      33 calls)
     regterg      :    106.79s CPU    107.84s WALL (      16 calls)

     Called by *egterg:
     rdiaghg      :      0.03s CPU      0.03s WALL (     138 calls)
     h_psi        :     96.66s CPU     96.68s WALL (     139 calls)
     s_psi        :      2.34s CPU      2.34s WALL (     139 calls)
     g_psi        :      0.29s CPU      0.29s WALL (     122 calls)

     Called by h_psi:
     h_psi:calbec :      2.01s CPU      2.01s WALL (     139 calls)
     vloc_psi     :     91.82s CPU     91.84s WALL (     139 calls)
     add_vuspsi   :      2.36s CPU      2.36s WALL (     139 calls)

     General routines
     calbec       :      2.44s CPU      2.44s WALL (     159 calls)
     fft          :    306.05s CPU    306.08s WALL (    2932 calls)
     ffts         :     62.88s CPU     62.88s WALL (     609 calls)
     fftw         :     89.59s CPU     89.59s WALL (     866 calls)
 
     Parallel routines
 
     PWSCF        :  24m25.52s CPU  26m 9.82s WALL

 
   This run was terminated on:  17:15:28  20Dec2022            

=------------------------------------------------------------------------------=
   JOB DONE.
=------------------------------------------------------------------------------=
