
     Program PWSCF v.6.7MaX starts on 20Dec2022 at 16:28:32 

     This program is part of the open-source Quantum ESPRESSO suite
     for quantum simulation of materials; please cite
         "P. Giannozzi et al., J. Phys.:Condens. Matter 21 395502 (2009);
         "P. Giannozzi et al., J. Phys.:Condens. Matter 29 465901 (2017);
          URL http://www.quantum-espresso.org", 
     in publications or presentations arising from this work. More details at
     http://www.quantum-espresso.org/quote

     Parallel version (MPI), running on     1 processors

     MPI processes distributed on     1 nodes
     Reading input from ooh-gas-ensemble.in
Warning: card &CELL ignored
Warning: card / ignored

     Current dimensions of program PWSCF are:
     Max number of different atomic species (ntypx) = 10
     Max number of k-points (npk) =  40000
     Max angular momentum in pseudopotentials (lmaxx) =  3
     file O.pbe-nl-kjpaw_psl.1.0.0.UPF: wavefunction(s)  2S 2P renormalized
     file H.pbe-kjpaw_psl.1.0.0.UPF: wavefunction(s)  1S renormalized

     **************************************************************************
     Initializing libbeef V0.1.2 with the BEEF-vdW functional.
     Citation: Wellendorff et al., PRB 85, 235149 (2012).
     **************************************************************************


     IMPORTANT: XC functional enforced from input :
     Exchange-correlation= BEEF-VDW
                           (   1   4  43  14   2   0   0)
     Any further DFT definition will be discarded
     Please, verify this is what you really want


     gamma-point specific algorithms are used

     Subspace diagonalization in iterative solution of the eigenvalue problem:
     a serial algorithm will be used

 
     G-vector sticks info
     --------------------
     sticks:   dense  smooth     PW     G-vecs:    dense   smooth      PW
     Sum       28987   28987   7235              3936785  3936785  492063
 


     bravais-lattice index     =            0
     lattice parameter (alat)  =      39.3184  a.u.
     unit-cell volume          =   62703.7157 (a.u.)^3
     number of atoms/cell      =            3
     number of atomic types    =            2
     number of electrons       =        13.00
     number of Kohn-Sham states=           11
     kinetic-energy cutoff     =      60.0000  Ry
     charge density cutoff     =     240.0000  Ry
     scf convergence threshold =      1.0E-06
     mixing beta               =       0.7000
     number of iterations used =            8  local-TF  mixing
     Exchange-correlation= BEEF-VDW
                           (   1   4  43  14   2   0   0)

     celldm(1)=  39.318398  celldm(2)=   0.000000  celldm(3)=   0.000000
     celldm(4)=   0.000000  celldm(5)=   0.000000  celldm(6)=   0.000000

     crystal axes: (cart. coord. in units of alat)
               a(1) = (   1.000000   0.000000   0.000000 )  
               a(2) = (   0.000000   0.982292   0.000000 )  
               a(3) = (   0.000000   0.000000   1.050184 )  

     reciprocal axes: (cart. coord. in units 2 pi/alat)
               b(1) = (  1.000000  0.000000  0.000000 )  
               b(2) = (  0.000000  1.018027  0.000000 )  
               b(3) = (  0.000000  0.000000  0.952214 )  


     PseudoPot. # 1 for O  read from file:
     /users/bkreitz1/quantum-espresso/potentials/O.pbe-nl-kjpaw_psl.1.0.0.UPF
     MD5 check sum: eef08af8b58d9ec80f8fdb78829eb7cf
     Pseudo is Projector augmented-wave + core cor, Zval =  6.0
     Generated using 'atomic' code by A. Dal Corso  v.6.7MaX
     Shape of augmentation charge: PSQ
     Using radial grid of 1095 points,  4 beta functions with: 
                l(1) =   0
                l(2) =   0
                l(3) =   1
                l(4) =   1
     Q(r) pseudized with 0 coefficients 


     PseudoPot. # 2 for H  read from file:
     /users/bkreitz1/quantum-espresso/potentials/H.pbe-kjpaw_psl.1.0.0.UPF
     MD5 check sum: ae98473e6dc62675f0d0baffdab24f65
     Pseudo is Projector augmented-wave, Zval =  1.0
     Generated using 'atomic' code by A. Dal Corso  v.6.7MaX
     Shape of augmentation charge: PSQ
     Using radial grid of  929 points,  2 beta functions with: 
                l(1) =   0
                l(2) =   0
     Q(r) pseudized with 0 coefficients 


     atomic species   valence    mass     pseudopotential
        O              6.00    15.99900     O ( 1.00)
        H              1.00     1.00800     H ( 1.00)

     No symmetry found



   Cartesian axes

     site n.     atom                  positions (alat units)
         1           O   tau(   1) = (   0.4923610   0.4868760   0.4853796  )
         2           O   tau(   2) = (   0.4817182   0.4812118   0.5490065  )
         3           H   tau(   3) = (   0.5191435   0.5015383   0.5699653  )

     number of k points=     1  Gaussian smearing, width (Ry)=  0.0050
                       cart. coord. in units 2pi/alat
        k(    1) = (   0.0000000   0.0000000   0.0000000), wk =   2.0000000

     Dense  grid:  1968393 G-vectors     FFT dimensions: ( 200, 192, 216)

     Estimated max dynamical RAM per process >       2.91 GB

     Initial potential from superposition of free atoms

     starting charge   12.99999, renormalised to   13.00000

     negative rho (up, down):  2.086E-02 0.000E+00


     %%%%%%%%%%%%%%%%%%%%%%%%%%%%%%%%%%%%%%%%%%%%%%%%%%%%%%%%%%%%%%%%%%%%%%%%
     %                                                                      %
     % You are using vdW-DF, which was implemented by the Thonhauser group. %
     % Please cite the following two papers that made this development      %
     % possible and the two reviews that describe the various versions:     %
     %                                                                      %
     %   T. Thonhauser et al., PRL 115, 136402 (2015).                      %
     %   T. Thonhauser et al., PRB 76, 125112 (2007).                       %
     %   K. Berland et al., Rep. Prog. Phys. 78, 066501 (2015).             %
     %   D.C. Langreth et al., J. Phys.: Condens. Matter 21, 084203 (2009). %
     %                                                                      %
     %                                                                      %
     % If you are calculating the stress with vdW-DF, please also cite:     %
     %                                                                      %
     %   R. Sabatini et al., J. Phys.: Condens. Matter 24, 424209 (2012).   %
     %                                                                      %
     %%%%%%%%%%%%%%%%%%%%%%%%%%%%%%%%%%%%%%%%%%%%%%%%%%%%%%%%%%%%%%%%%%%%%%%%


     Starting wfcs are    9 randomized atomic wfcs +    2 random wfcs
     Checking if some PAW data can be deallocated... 

     total cpu time spent up to now is       66.7 secs

     Self-consistent Calculation

     iteration #  1     ecut=    60.00 Ry     beta= 0.70
     Davidson diagonalization with overlap
     ethr =  1.00E-02,  avg # of iterations =  5.0

     negative rho (up, down):  1.818E-02 0.000E+00

     total cpu time spent up to now is      103.8 secs

     total energy              =     -85.87469490 Ry
     estimated scf accuracy    <       0.21953165 Ry

     iteration #  2     ecut=    60.00 Ry     beta= 0.70
     Davidson diagonalization with overlap
     ethr =  1.69E-03,  avg # of iterations =  2.0

     negative rho (up, down):  2.300E-02 0.000E+00

     total cpu time spent up to now is      138.5 secs

     total energy              =     -85.87496212 Ry
     estimated scf accuracy    <       0.03633313 Ry

     iteration #  3     ecut=    60.00 Ry     beta= 0.70
     Davidson diagonalization with overlap
     ethr =  2.79E-04,  avg # of iterations =  5.0

     negative rho (up, down):  3.262E-02 0.000E+00

     total cpu time spent up to now is      175.2 secs

     total energy              =     -85.87800131 Ry
     estimated scf accuracy    <       0.00549439 Ry

     iteration #  4     ecut=    60.00 Ry     beta= 0.70
     Davidson diagonalization with overlap
     ethr =  4.23E-05,  avg # of iterations = 20.0

     negative rho (up, down):  3.636E-02 0.000E+00

     total cpu time spent up to now is      216.0 secs

     total energy              =     -85.87797377 Ry
     estimated scf accuracy    <       0.00185938 Ry

     iteration #  5     ecut=    60.00 Ry     beta= 0.70
     Davidson diagonalization with overlap
     ethr =  1.43E-05,  avg # of iterations = 10.0

     negative rho (up, down):  4.086E-02 0.000E+00

     total cpu time spent up to now is      254.2 secs

     total energy              =     -85.87792783 Ry
     estimated scf accuracy    <       0.00091421 Ry

     iteration #  6     ecut=    60.00 Ry     beta= 0.70
     Davidson diagonalization with overlap
     ethr =  7.03E-06,  avg # of iterations =  8.0

     negative rho (up, down):  4.527E-02 0.000E+00

     total cpu time spent up to now is      292.2 secs

     total energy              =     -85.87803312 Ry
     estimated scf accuracy    <       0.00037191 Ry

     iteration #  7     ecut=    60.00 Ry     beta= 0.70
     Davidson diagonalization with overlap
     ethr =  2.86E-06,  avg # of iterations =  9.0

     negative rho (up, down):  4.023E-02 0.000E+00

     total cpu time spent up to now is      330.2 secs

     total energy              =     -85.87801785 Ry
     estimated scf accuracy    <       0.00014966 Ry

     iteration #  8     ecut=    60.00 Ry     beta= 0.70
     Davidson diagonalization with overlap
     ethr =  1.15E-06,  avg # of iterations = 15.0

     negative rho (up, down):  3.553E-02 0.000E+00

     total cpu time spent up to now is      369.9 secs

     total energy              =     -85.87798609 Ry
     estimated scf accuracy    <       0.00005217 Ry

     iteration #  9     ecut=    60.00 Ry     beta= 0.70
     Davidson diagonalization with overlap
     ethr =  4.01E-07,  avg # of iterations =  8.0

     negative rho (up, down):  2.915E-02 0.000E+00

     total cpu time spent up to now is      407.3 secs

     total energy              =     -85.87792774 Ry
     estimated scf accuracy    <       0.00002533 Ry

     iteration # 10     ecut=    60.00 Ry     beta= 0.70
     Davidson diagonalization with overlap
     ethr =  1.95E-07,  avg # of iterations = 12.0

     negative rho (up, down):  2.685E-02 0.000E+00

     total cpu time spent up to now is      446.2 secs

     total energy              =     -85.87793031 Ry
     estimated scf accuracy    <       0.00000884 Ry

     iteration # 11     ecut=    60.00 Ry     beta= 0.70
     Davidson diagonalization with overlap
     ethr =  6.80E-08,  avg # of iterations =  7.0

     negative rho (up, down):  2.516E-02 0.000E+00

     total cpu time spent up to now is      484.8 secs

     total energy              =     -85.87793552 Ry
     estimated scf accuracy    <       0.00000402 Ry

     iteration # 12     ecut=    60.00 Ry     beta= 0.70
     Davidson diagonalization with overlap
     ethr =  3.09E-08,  avg # of iterations =  5.0

     negative rho (up, down):  2.431E-02 0.000E+00

     total cpu time spent up to now is      521.5 secs

     total energy              =     -85.87793687 Ry
     estimated scf accuracy    <       0.00000134 Ry

     iteration # 13     ecut=    60.00 Ry     beta= 0.70
     Davidson diagonalization with overlap
     ethr =  1.03E-08,  avg # of iterations = 19.0

     negative rho (up, down):  2.391E-02 0.000E+00

     total cpu time spent up to now is      552.2 secs

     End of self-consistent calculation

          k = 0.0000 0.0000 0.0000 (246032 PWs)   bands (ev):

   -30.2261 -21.9018 -14.1913 -12.0021 -11.4996  -6.9348  -6.4048  -1.6400
    -0.3946  -0.1825   0.0743

     the Fermi energy is    -6.4048 ev

!    total energy              =     -85.87793969 Ry

     total all-electron energy =      -303.571725 Ry
     estimated scf accuracy    <       0.00000038 Ry
     smearing contrib. (-TS)   =      -0.00282095 Ry
     internal energy E=F+TS    =     -85.87511874 Ry

     The total energy is F=E-TS. E is the sum of the following terms:
     one-electron contribution =    -157.03056414 Ry
     hartree contribution      =      81.28540893 Ry
     xc contribution           =     -15.90159519 Ry
     ewald contribution        =      26.06473308 Ry
     one-center paw contrib.   =     -20.29310143 Ry

     convergence has been achieved in  13 iterations

     negative rho (up, down):  2.391E-02 0.000E+00

     Forces acting on atoms (cartesian axes, Ry/au):

     atom    1 type  1   force =     0.00057073    0.00032896    0.00234777
     atom    2 type  1   force =     0.00436381    0.00234956    0.00208222
     atom    3 type  2   force =    -0.00493454   -0.00267851   -0.00443000

     Total force =     0.009273     Total SCF correction =     0.000267

     negative rho (up, down):  2.391E-02 0.000E+00

     negative rho (up, down):  2.391E-02 0.000E+00

     negative rho (up, down):  2.391E-02 0.000E+00

     negative rho (up, down):  2.391E-02 0.000E+00

     negative rho (up, down):  2.391E-02 0.000E+00

     negative rho (up, down):  2.391E-02 0.000E+00

     negative rho (up, down):  2.391E-02 0.000E+00

     negative rho (up, down):  2.391E-02 0.000E+00

     negative rho (up, down):  2.391E-02 0.000E+00

     negative rho (up, down):  2.391E-02 0.000E+00

     negative rho (up, down):  2.391E-02 0.000E+00

     negative rho (up, down):  2.391E-02 0.000E+00

     negative rho (up, down):  2.391E-02 0.000E+00

     negative rho (up, down):  2.391E-02 0.000E+00

     negative rho (up, down):  2.391E-02 0.000E+00

     negative rho (up, down):  2.391E-02 0.000E+00

     negative rho (up, down):  2.391E-02 0.000E+00

     negative rho (up, down):  2.391E-02 0.000E+00

     negative rho (up, down):  2.391E-02 0.000E+00

     negative rho (up, down):  2.391E-02 0.000E+00

     negative rho (up, down):  2.391E-02 0.000E+00

     negative rho (up, down):  2.391E-02 0.000E+00

     negative rho (up, down):  2.391E-02 0.000E+00

     negative rho (up, down):  2.391E-02 0.000E+00

     negative rho (up, down):  2.391E-02 0.000E+00

     negative rho (up, down):  2.391E-02 0.000E+00

     negative rho (up, down):  2.391E-02 0.000E+00

     negative rho (up, down):  2.391E-02 0.000E+00

     negative rho (up, down):  2.391E-02 0.000E+00

     negative rho (up, down):  2.391E-02 0.000E+00

     negative rho (up, down):  2.391E-02 0.000E+00

     negative rho (up, down):  2.391E-02 0.000E+00

     negative rho (up, down):  2.391E-02 0.000E+00

     negative rho (up, down):  2.391E-02 0.000E+00
 BEEFens 2000 ensemble energies
             -0.116623236643429E+01
             -0.458594345222139E-01
             -0.256174638981205E+00
              0.813969062968874E+00
             -0.386328827753466E+00
             -0.307589192561353E+00
             -0.846409846252423E+00
             -0.178235638967090E+01
             -0.701766234860888E+00
             -0.748796013067036E+00
             -0.653523166519205E+00
              0.784314367943018E-01
              0.526729077485477E-01
             -0.397888495516572E-01
              0.752235279421427E-01
              0.860744529910210E+00
             -0.396693987272993E+00
             -0.249524193348649E+00
              0.402807545551573E+00
             -0.204779633618735E+01
              0.103940750719936E+01
             -0.371061396376433E+00
             -0.117870154525563E+00
             -0.179708873707430E+00
              0.504164816284458E-02
             -0.139688179748311E+00
              0.164039400818288E+01
             -0.348750363306375E+00
             -0.176265167718432E+00
             -0.101555021733461E+01
              0.134311319479232E+01
             -0.151188858313923E+00
             -0.772264472123627E+00
              0.380367881558035E+00
             -0.541767032493050E-01
              0.473596189641489E+00
              0.944598246741002E-02
              0.357409966891113E-01
              0.610185650891314E+00
             -0.189445380519524E+01
              0.100576115475112E+01
              0.208037243408719E+00
             -0.172000481067814E+00
             -0.587031434631718E+00
              0.212309520076063E+00
             -0.294585642191766E+00
              0.911296796938789E+00
              0.667407641366516E+00
             -0.399440345688291E+00
             -0.588248939907643E+00
             -0.539513813635622E+00
             -0.664302487474607E+00
              0.335232620259536E+00
             -0.983591705306537E+00
              0.281878126196435E+00
              0.112008652258745E+01
              0.133698317962640E+01
              0.598802369606775E+00
              0.339641938984141E+00
              0.557141696655188E+00
              0.165776234121337E+01
              0.368007698767526E+00
             -0.102869447750111E+01
             -0.202604126672130E+00
             -0.526187370837156E+00
              0.116653227281498E+01
             -0.139694463504614E+01
             -0.108741972974707E+01
             -0.559390997782937E+00
             -0.270289697215985E+00
             -0.786023196610282E+00
              0.505142098567961E+00
              0.240359989223364E+00
              0.283099253648215E+00
             -0.689358123985458E+00
             -0.656492668880024E+00
             -0.105263933861365E+01
              0.632026134621501E+00
             -0.607806670838229E+00
              0.529974561644324E+00
             -0.114461970057125E+00
             -0.548503204396690E+00
             -0.100372131332238E+01
             -0.291069496147903E+00
             -0.306073289324654E+00
             -0.315704368796798E+00
              0.708702404870807E+00
              0.136641811870579E+01
             -0.826698637701237E+00
             -0.149704300294675E+01
             -0.346522084154742E+00
              0.204899537286178E+01
             -0.100332399525156E+01
              0.571487249497738E+00
             -0.204210562082599E+00
             -0.114120235580031E+01
              0.521917230524513E+00
              0.611386524986895E+00
             -0.255505889597275E+00
              0.541375806092276E+00
             -0.487379054150626E+00
             -0.107136169157298E+01
              0.179656769217723E+01
              0.849451988381324E+00
              0.442205593242178E+00
              0.242255231260720E+00
              0.386725133684898E+00
              0.151689148257225E+01
             -0.486708936120406E+00
              0.448924344427450E-01
             -0.258551808954744E+01
              0.369524830444514E+00
             -0.124094996010756E+01
              0.226242756288116E+00
              0.393318401323317E+00
             -0.659234126629590E+00
             -0.945935190285273E+00
              0.784578391709072E-01
             -0.548605970475142E+00
              0.784767400044104E+00
             -0.833950339210982E+00
             -0.121071606249540E+00
             -0.709172348436022E+00
             -0.706580219302806E-01
              0.410655943940497E-01
              0.353020528598424E+00
             -0.859610277400868E-02
             -0.134129112791340E+00
              0.118210618945570E+01
              0.168854159838260E+01
              0.894044214966209E+00
              0.128441660484109E+01
             -0.258697821127086E+00
              0.180217227118273E+00
              0.971495219406037E+00
              0.206109332333644E-01
             -0.139537573311493E+01
             -0.765315106093725E+00
             -0.887286614529966E+00
             -0.545369593026562E+00
              0.458474823749082E+00
             -0.223902484764493E+01
             -0.223975266498116E+00
              0.840808648290238E+00
             -0.750240290992472E+00
             -0.559897609064571E+00
              0.100818237836042E+01
              0.909740960565620E+00
             -0.522133657086996E+00
              0.513846685559685E+00
             -0.441838803929457E+00
              0.700168194499659E+00
              0.159603562425820E+00
              0.240244537244311E+00
             -0.153290989280203E+01
             -0.903333362812449E+00
             -0.157303896140560E+00
             -0.252085042890086E-01
             -0.773695281022437E+00
              0.201818391984606E+01
             -0.248245065322319E+00
             -0.504857767219496E+00
              0.750836323867095E+00
             -0.851699640079009E+00
             -0.663379238507938E+00
              0.583439181570668E+00
              0.202620285530165E+00
              0.179967531975672E+00
              0.251186239181223E+00
             -0.195693609668739E+00
              0.218602286323685E+00
              0.109772252035447E+01
             -0.533707702209528E+00
              0.397592166482589E+00
              0.163630174017209E+01
              0.565022540959155E+00
             -0.915305761266882E-01
             -0.351492254820495E+00
              0.285047198040815E+01
             -0.420756336470807E+00
              0.698171175097784E+00
              0.530299253838795E+00
              0.567226449323744E+00
              0.173146389042752E+01
              0.863383821265318E+00
             -0.113320296991432E+00
              0.433178020183307E+00
              0.932087259456104E+00
              0.724037697840137E+00
             -0.111073542550838E+01
              0.173056603189903E+01
             -0.157830692476520E+01
             -0.244486480617112E+00
              0.105757928187105E+01
              0.238482784223182E+00
              0.944558404875551E-01
              0.552258376372621E+00
              0.303810548503080E+00
              0.612648465151246E+00
             -0.116324185512522E+01
              0.778996925745759E-01
             -0.430977649700976E+00
             -0.142591429262801E+00
             -0.378233113938204E-01
             -0.204044216570478E+00
             -0.112192309647488E+00
              0.153367520939054E+01
             -0.102434353912391E+00
             -0.545802910063521E+00
             -0.333158761633203E-01
              0.250178840980178E+00
             -0.117035693548074E+01
             -0.940869213971339E+00
             -0.633820527260692E+00
             -0.114827294000982E+01
             -0.345350043163711E+00
             -0.744780644659552E+00
              0.356185570880003E+00
              0.135624452846537E-01
             -0.229285535988192E+00
             -0.155775101123055E+00
              0.100836074865103E+00
             -0.323598095333465E+00
              0.117870282513753E+01
             -0.157721796604457E+01
             -0.242422841709495E+00
             -0.279764428770832E+00
              0.298198880670040E+00
              0.340558176428490E+00
             -0.934997635426317E+00
             -0.250554866401150E+00
              0.816080233422024E+00
             -0.387538073069355E+00
              0.229413080920020E+00
              0.653365092595211E+00
             -0.841021667932118E-02
              0.213776185758534E+01
             -0.266711804880812E+00
             -0.655209274622861E+00
              0.336588021104305E-01
             -0.493603150258179E+00
              0.995295998143166E+00
             -0.830063536628454E+00
              0.229894373227202E+00
              0.984043971130161E+00
             -0.254814724181275E+00
              0.216708176892790E+01
              0.235096886860873E+01
             -0.129492705952640E+01
              0.104326259785756E+01
              0.390027296948173E+00
             -0.101678039680160E+01
              0.357056273723004E+00
              0.727319171333530E+00
              0.823135457249043E+00
              0.100080193354000E+00
              0.279412773785468E+00
              0.133915294776957E+01
             -0.418510315751173E+00
              0.173713590074480E+00
              0.129378187708223E+01
             -0.685737418251255E+00
             -0.391889064720469E+00
              0.104987792590442E+01
              0.557275287189258E+00
              0.144317870957608E+01
              0.584155264901624E+00
              0.209276015376684E+00
              0.467106535396326E+00
              0.768250571623947E+00
             -0.895863906794635E+00
              0.102188925323830E+00
              0.420072682066107E+00
              0.185556200500804E+00
              0.425000868512411E+00
             -0.111482607983079E+01
              0.614748099515204E+00
             -0.810069973252777E+00
             -0.552883225988763E+00
              0.308520642892191E+00
             -0.194965963074853E+00
              0.106124258763791E+01
             -0.339124989797856E+00
              0.523373010787864E+00
              0.556169515143425E+00
              0.143471969961113E+01
              0.973577954899512E+00
              0.934687620864094E+00
             -0.132983910164353E+00
             -0.174880587667178E+00
             -0.542449104090993E+00
              0.147282748751973E+01
              0.152285129878623E+01
              0.707276127219282E+00
             -0.495169460671064E+00
              0.917907890656908E+00
             -0.549234905138407E-01
              0.364406510840411E+00
              0.125191260215433E+01
             -0.424752802022632E-01
             -0.191791939287567E+00
             -0.430079850199654E+00
             -0.105885371053756E+01
              0.176847496919422E+01
              0.876831970904945E+00
             -0.115200496417875E+01
             -0.374405015317454E+00
              0.488991344271443E+00
             -0.216363298175277E+00
              0.119851469782757E+01
              0.293109598289609E+00
              0.149475162081559E+01
              0.511713198455987E+00
             -0.483405107894267E+00
              0.379466803271070E+00
             -0.125642778642854E+00
             -0.514793053203471E+00
              0.323968828416983E+00
              0.335029446174035E+00
              0.161544330418604E+01
              0.141510173082193E+01
              0.102594745470767E+01
              0.127920683827355E+01
              0.109285812298521E+00
             -0.476595595362122E+00
              0.244028447470218E+00
             -0.634173625411824E+00
             -0.100170018198360E+01
             -0.107387285525943E+01
             -0.574410445848164E+00
             -0.200086976046970E+01
             -0.642746666399983E+00
             -0.158092958654041E+01
              0.353982088598455E+00
             -0.839465444571764E+00
              0.890142965318071E+00
             -0.177091191045529E+01
             -0.544625677989122E+00
              0.796140699277600E+00
              0.410052566032918E+00
             -0.162993917207540E+01
              0.103400774839455E+01
             -0.509753920307616E+00
              0.101703782133530E+01
             -0.557876809062272E+00
             -0.144734651885468E+01
              0.335985547907671E+00
             -0.121292807506542E+01
             -0.132354465238889E+00
              0.283319847920022E-02
              0.799643691322936E+00
              0.230898285298663E+01
             -0.816666011468639E+00
             -0.701897301488526E+00
             -0.979306244076596E-01
             -0.176871169075370E+00
             -0.147801315622460E+01
             -0.106378466114008E+01
              0.946483994726504E+00
             -0.377593968100960E+00
              0.363301309446810E+00
             -0.918058717635961E+00
             -0.271458907075762E+00
             -0.775292676512936E+00
              0.899085974441729E+00
              0.292626561625708E+00
             -0.442304602256813E+00
             -0.288478523637987E+00
              0.221316005654691E+00
             -0.158643606366647E+00
              0.760844994000187E+00
             -0.498353822565248E+00
              0.138662902845907E+00
              0.594258702180050E+00
              0.276546904778082E+00
             -0.389033730022844E+00
              0.287179430180687E+01
              0.104306748259754E+01
              0.165320418930185E+00
              0.137102905315880E+00
             -0.110702555815523E+01
              0.593294103156923E+00
             -0.141736748725140E+01
             -0.603939900801182E+00
             -0.108741661247677E+01
             -0.320712994328709E+00
              0.105748808392444E+01
             -0.106091508887741E+01
              0.434695201196986E+00
             -0.517670597316418E-01
              0.449925795882606E-01
             -0.607834965713862E+00
             -0.771103759194392E+00
             -0.616979994274942E-01
             -0.694241762562773E+00
             -0.445738355989698E+00
             -0.723956733060869E+00
             -0.116856762364813E+00
             -0.596652382625070E+00
             -0.913720775242957E+00
              0.433817680701531E+00
             -0.275608532676588E+00
              0.406348012699153E+00
              0.176423822358886E+00
             -0.137037790382483E+01
             -0.967223901093140E+00
             -0.854266324475755E+00
              0.637391584315456E+00
             -0.866048293796582E-01
             -0.117439680095535E+01
              0.102231138394438E+01
             -0.783561404541116E+00
              0.103724446263115E+01
             -0.548774613448919E+00
             -0.915328783863342E+00
              0.505214452893568E+00
             -0.133945272350819E+01
             -0.616914976538184E+00
              0.111927511420295E+01
              0.363056014546956E+00
             -0.734684984089684E+00
              0.100530931434699E+01
             -0.293948572513221E+00
             -0.661040311067055E+00
             -0.569180013408057E+00
             -0.955282355984989E+00
              0.432012986213650E+00
             -0.160345342603283E+01
             -0.145565412884684E+01
             -0.127027654786648E+00
             -0.528247077141073E+00
             -0.108855450647777E+01
              0.139900862726044E+01
              0.251434535136570E+01
             -0.462399556505830E+00
             -0.454047877537898E-01
             -0.114467879643387E+01
              0.120956227337381E+01
              0.392552684242426E+00
             -0.337650053443515E+00
             -0.684185145978693E+00
              0.277767956273299E+00
             -0.112945456152017E+01
             -0.214913516046006E+00
             -0.163472872982739E+01
              0.615295851354709E+00
              0.248985214079669E+00
             -0.878637576961907E-01
             -0.161899897498598E+00
             -0.711859333401534E+00
             -0.206724248553130E+00
              0.247152796024433E+01
             -0.295766023824282E+00
             -0.852361411150962E+00
             -0.125416022556317E+01
              0.240759285738099E+00
             -0.670491957668012E+00
              0.149682790797817E+00
              0.601172513172796E+00
              0.789351989676570E-01
              0.635609820903200E+00
              0.304051981203941E+00
              0.108864786277710E+01
              0.506291222109704E+00
             -0.643855546520792E+00
              0.911405684595212E+00
              0.647289699219740E+00
              0.237578908472942E+00
              0.704141789648186E+00
             -0.517772588367242E+00
              0.132974473799544E+01
              0.431129536188742E+00
             -0.624836901793404E+00
             -0.104980903110618E+00
             -0.296559846225659E+00
              0.324800276460407E+00
             -0.516432135127914E+00
             -0.159036101821465E+00
             -0.229844058713645E+00
              0.150561853152323E+01
              0.106126836130664E+01
             -0.125912435061836E+01
             -0.112227938625444E+00
             -0.966493017012160E+00
             -0.277594726393535E+00
             -0.393498165622948E+00
              0.188997949403689E+00
             -0.821280083434687E-01
             -0.499339612023686E+00
              0.265212726141824E+00
             -0.166682478509180E+00
             -0.169211303691662E+00
              0.161314885100907E+01
              0.310129239602458E+00
             -0.149229617088129E+01
             -0.740877138197922E+00
              0.171807384686801E+01
              0.431646923691209E+00
             -0.151956962031402E+00
              0.202104805566081E+01
             -0.365346701779637E+00
             -0.154059326361593E+00
             -0.187831575115704E+00
              0.281022699631044E+00
              0.561999348709751E+00
              0.550518217261420E-01
              0.527631709906048E+00
             -0.238708579625826E+00
             -0.669430207384240E+00
             -0.708365863668329E+00
             -0.907588841351142E+00
              0.778589390124539E+00
              0.279717853149724E+00
              0.695719114284727E+00
              0.290561044196973E+00
              0.164564709991607E+01
              0.357690640596542E+00
             -0.141362611343625E+01
             -0.607163088641408E+00
              0.110726798857726E+00
             -0.523956167688779E+00
              0.115912427109032E+01
             -0.294651194984297E+00
              0.331832286818267E+00
              0.994524259819168E+00
             -0.147438085728823E+01
              0.274083592301732E+01
              0.350497355317579E+00
              0.444007198019744E+00
              0.682716491827933E+00
              0.947043261090101E-01
             -0.622092810684203E-01
              0.627105242898318E+00
             -0.623645972164573E+00
              0.155678656977140E+01
              0.135418356096477E+01
             -0.706281724287939E+00
              0.319542494460498E+00
              0.133127779855953E+01
             -0.418153995398805E+00
              0.343937667462140E+00
              0.673632761919227E+00
              0.803570498847112E+00
             -0.138566636706455E+01
             -0.142982542786143E+00
             -0.554740791000358E+00
             -0.120878849726661E+00
             -0.102894328899811E+00
              0.558635906502829E-01
             -0.299893378060712E+00
             -0.519535592083884E+00
              0.239420147950565E+00
              0.149527436066069E+00
              0.985672070809960E+00
             -0.821351793902991E+00
              0.766752753271287E+00
              0.908827376814980E+00
             -0.248592801745498E+00
              0.145106929308023E+01
             -0.124192323472777E+01
             -0.191348504524173E+01
             -0.108519825696518E+00
             -0.121926812548187E+00
              0.279945670993680E-01
              0.140480953630887E+01
             -0.656355456513940E-01
              0.762205256585156E+00
              0.103833310332353E+01
              0.726972863772145E+00
             -0.863440928498331E-01
              0.115746550845148E+01
             -0.306465107448003E+00
             -0.687730181084261E+00
             -0.747583808792834E+00
              0.147597380903155E+00
              0.717653201006854E+00
             -0.809585486868465E-01
              0.679087791647220E+00
             -0.256974549169708E-02
              0.107498436096066E+01
              0.356581027584606E+00
              0.136139392383086E+00
             -0.171817134177026E-01
              0.568986708051416E+00
              0.754758227990131E+00
              0.320822980224870E+00
             -0.580172076426022E-01
             -0.985604631742512E+00
              0.545403338013820E+00
              0.379603836022078E+00
              0.662489695935316E+00
              0.577472283005320E+00
              0.658910942691292E+00
             -0.160090674287262E+00
              0.568098197924591E+00
             -0.516799578457690E+00
             -0.390730603597866E-01
             -0.999888669297870E+00
             -0.652060219633192E+00
              0.798321462237131E+00
             -0.164643017952003E+01
              0.486938244071449E+00
              0.268093269535782E+00
              0.156927089812244E+01
             -0.350777426343583E+00
              0.577288348735453E+00
             -0.223603914941142E+00
             -0.901444760221747E+00
             -0.129192340765082E+01
             -0.222440480485290E+00
             -0.166885149025972E+01
              0.215123147403720E+00
             -0.400490594645446E+00
              0.584640242382067E+00
              0.393161563295411E+00
             -0.492131377963911E+00
             -0.509717770390941E+00
              0.792538294258314E+00
             -0.101531320207142E+01
             -0.228219358906776E+00
             -0.311190803142623E+00
              0.451113524242488E+00
              0.896062809628617E-03
              0.828232909712030E-01
             -0.314713907333273E+00
              0.100130393655642E+01
             -0.987849584850245E+00
              0.160523279989025E+00
              0.109013536421170E+01
             -0.639296048682419E+00
              0.477114809388395E-01
             -0.216340037186296E-01
             -0.125905143873627E+01
             -0.801696164709045E+00
             -0.774146828813164E-01
              0.542367648717068E+00
              0.601961817813738E+00
              0.842712001867989E-01
             -0.187322776652568E+00
              0.356733629636927E+00
             -0.793759579462448E+00
             -0.523324418171303E-01
             -0.965134690390794E+00
             -0.471535579206259E+00
              0.908001244982728E+00
             -0.563826665926774E+00
              0.124405836156039E+01
             -0.387231439771435E+00
              0.659588173967295E+00
              0.469472478289186E+00
             -0.110500008769083E+01
             -0.519040675142412E+00
              0.154142286410184E+00
             -0.714298041792157E+00
             -0.760807488225733E+00
             -0.160305349719787E+01
             -0.104931115190546E+01
             -0.927226218430501E+00
             -0.829953314332793E+00
              0.239254504559296E-01
              0.395885948152442E+00
              0.131795879960695E+00
              0.447968595385821E+00
             -0.108290642359927E+01
              0.222919846579433E+00
              0.442689712195197E+00
             -0.127460551520097E+01
             -0.109165381566318E+01
             -0.696115580752279E+00
             -0.536441237920503E+00
              0.309144451395076E+00
             -0.322730288244752E-01
             -0.829678757269928E+00
              0.588379482650831E+00
             -0.386986539856474E+00
              0.971155378174902E+00
             -0.161344420657637E+01
              0.111598285892780E+01
             -0.130533291409940E+00
             -0.790420225908059E+00
             -0.532547911708723E+00
             -0.107976450068641E-01
              0.875793338947715E+00
             -0.130583514878127E+01
             -0.251257348467647E+00
             -0.306847460522121E+00
              0.808760982099194E+00
              0.147179862520087E+01
             -0.181283147509750E+01
              0.171453903879022E+01
              0.778922865031445E+00
             -0.141024681383574E+01
             -0.621377825642486E+00
              0.143074517273362E+01
              0.106739345471437E+01
             -0.353677855259171E+00
             -0.129731721276976E+00
              0.301487334425116E+00
              0.138679020349001E+01
             -0.106613828945784E+01
              0.281183980412673E+00
             -0.123355442566197E+00
              0.547707281321475E+00
             -0.131130780490923E+01
             -0.784622417907153E-01
             -0.552086432890464E+00
              0.888047562614226E+00
              0.735053810757816E+00
             -0.161307304884936E+01
             -0.889813510887281E+00
             -0.404828712031398E+00
             -0.744806245143579E+00
             -0.255436879959270E+00
             -0.398707387895063E+00
              0.834556056045665E+00
              0.824777659266947E+00
             -0.897104584143920E-01
             -0.786514028594317E+00
             -0.154938076884328E+01
              0.893048993855254E+00
             -0.887944538947014E+00
             -0.635227999688988E+00
              0.136691217970569E+00
             -0.644633149000369E+00
             -0.759197921766702E+00
             -0.542385057010426E+00
             -0.873480855316490E+00
             -0.462443870834202E+00
             -0.927527996827464E+00
              0.105869392878019E+01
              0.115186240593500E+01
             -0.151467579185812E+00
             -0.415276703836197E+00
              0.328940447419832E-01
              0.771006189262668E+00
             -0.161437997341554E+01
             -0.440706621833651E+00
              0.953496610186320E+00
              0.123980730010421E+01
             -0.244829868864861E+00
              0.225019439847197E+00
              0.952189587880707E+00
              0.278278822503525E+00
             -0.423469022831213E-01
             -0.711713138877586E+00
              0.297291466450035E+00
             -0.624072194900957E+00
             -0.241990551895310E+00
             -0.370135679374032E+00
             -0.292170651281915E+00
              0.390375169009146E+00
              0.146803176190909E+01
             -0.101441677505887E+00
              0.457019074602920E-01
             -0.168760666284634E+01
             -0.333881686732044E+00
             -0.689458468373649E+00
              0.578092210066687E-01
             -0.801462197624327E+00
              0.157680128833531E+01
              0.160832192403802E+01
              0.348033591647270E+00
             -0.364821773144545E+00
              0.293296674543651E+00
              0.439995063928537E+00
             -0.843406144840051E+00
             -0.129127187723803E+00
              0.291024846697439E+00
              0.249362555097279E+00
              0.954590829089721E+00
              0.779745216145335E+00
             -0.408137657728221E+00
              0.474978814474310E+00
             -0.178165213419662E+01
             -0.821698025364113E-01
              0.165314145320870E+01
              0.316486199827085E+00
             -0.835155101883700E-02
              0.512664681123515E+00
             -0.427813306803494E+00
              0.168334803176617E+01
             -0.315269433988408E+00
              0.148805450639312E+01
              0.688360091315678E+00
             -0.797164009994310E+00
              0.600792639434135E+00
             -0.528572671853991E+00
             -0.123387139827919E+01
             -0.142471027000949E+00
             -0.101988883066473E+01
             -0.983984110278591E+00
             -0.389247763005862E-01
              0.630940064368433E+00
             -0.189333164929620E+00
             -0.620548210463030E+00
              0.128260490882695E+00
             -0.125254203848800E+01
             -0.943965924493794E-01
             -0.159797068987428E+01
              0.104474903445378E+01
             -0.897388080994053E-01
             -0.899035230325834E+00
             -0.371996700517065E+00
              0.312573145150292E+00
             -0.641262469943108E+00
             -0.834060178052983E+00
              0.161619826383197E+01
             -0.488171071468449E+00
             -0.787189627325919E+00
              0.541089524464722E+00
             -0.315797539286230E+00
              0.978633172441843E+00
              0.883943918842434E-02
              0.952082648697772E-01
              0.194658358810335E+01
             -0.245622326170151E+00
             -0.694439600221236E+00
             -0.812478678528130E+00
             -0.100425093190192E+01
             -0.667950970587578E+00
              0.551090328493421E+00
              0.487360649042643E+00
              0.513024695364595E+00
              0.138951345011784E+01
              0.627738123302120E-01
              0.373891753391692E+00
             -0.113854203401875E+01
              0.182906560623515E-01
             -0.373633025852722E+00
             -0.496593414898863E+00
             -0.301792523262030E-01
              0.619378246408400E+00
              0.699258914199612E+00
             -0.286509739522734E-01
              0.183063497306623E+00
              0.540050006164183E+00
              0.700301373490874E+00
             -0.407153985199556E+00
             -0.185893860356662E+00
              0.293853880367543E-01
             -0.485978087781477E+00
             -0.128599429482454E+00
             -0.624184290393923E+00
              0.139554684306555E+01
              0.112537953904044E+01
             -0.278889957570007E+00
              0.252257217085211E+00
             -0.786779815577608E-01
             -0.495431164033882E+00
              0.660976702234016E+00
             -0.171450940489999E+00
              0.649056199975450E+00
             -0.917854274577057E+00
              0.325959329405425E+00
             -0.148699525677305E+00
             -0.101280474556348E+01
             -0.450211920262156E+00
              0.441248847657906E+00
             -0.177203960769874E+01
              0.704560723037023E+00
              0.883703743799984E+00
             -0.160937289025092E+00
             -0.116478418258577E+00
             -0.498912502029212E-01
              0.488757673624667E+00
             -0.607868324220995E+00
              0.590387073808429E+00
              0.587513839982615E+00
             -0.180133642543754E+01
             -0.648042437790688E+00
              0.434146802868916E+00
             -0.237317768633508E+00
              0.815591101632719E+00
             -0.112387831404925E+01
             -0.946986355938595E-01
             -0.740744314493271E+00
             -0.235396797024127E+01
              0.145489621381445E+01
             -0.113055219517899E+01
             -0.119508771567747E+01
              0.123063629445922E+00
              0.238006378910676E+01
              0.100098987579068E+00
             -0.526881614727894E+00
             -0.569306997539520E-02
             -0.994549167229346E-01
             -0.165210948872652E+01
             -0.106609318314286E+01
              0.155977164898416E+01
             -0.169737696087629E+00
             -0.696878135889809E+00
              0.954081983652674E+00
             -0.613660128497110E+00
              0.654128980252644E+00
              0.916924407424959E+00
             -0.105608307218993E+01
             -0.513464961698476E+00
             -0.596151383405548E+00
             -0.272203104922220E+00
             -0.388267902359870E+00
             -0.265724352756404E+00
              0.338447582941974E+00
             -0.632887658984876E+00
              0.531181872126949E+00
              0.106065244227857E+01
             -0.210004486021624E+00
             -0.338285459807043E+00
              0.252197203897036E+00
              0.101428071101180E+01
              0.984669437302671E+00
              0.974841268095101E-01
             -0.137574148909036E+00
             -0.152403258484761E+00
             -0.982571096163662E+00
              0.732772210151065E+00
             -0.485294683494065E+00
              0.377496193765333E+00
             -0.260024702995585E+00
              0.519789687773515E+00
              0.312253024127437E+00
             -0.151511607138072E+01
             -0.498739008648014E+00
             -0.144500047696995E+01
             -0.702619973737388E+00
              0.116550338949316E+00
             -0.343129466278806E+00
              0.615131942051509E+00
             -0.512059425907684E+00
              0.336984060700871E-01
              0.142272171404473E+00
              0.137777061577924E+01
              0.702443843720379E+00
             -0.549106018201003E+00
              0.240798421917932E-02
              0.262635615056655E+00
              0.684648063452205E+00
              0.174732527018762E-02
              0.101137746675860E+01
              0.541186747282028E+00
              0.166118657032360E+01
              0.922048626846070E-01
              0.120536908004146E+01
             -0.491775846371105E+00
             -0.742195736353528E+00
              0.106534117840387E+00
              0.165783609199949E+00
              0.483513403936986E+00
             -0.245392593871111E+00
             -0.241929281464008E+00
              0.410752681957928E+00
             -0.849169488005915E+00
             -0.104090548056027E+01
              0.143727286320326E+01
             -0.122221183396222E+00
             -0.749309598194871E+00
             -0.842991833338353E-01
             -0.266429277106610E+00
              0.704494544334595E+00
              0.676225983754589E+00
             -0.358449834438462E+00
             -0.354168390632146E-01
             -0.502458868809753E+00
             -0.638654878065317E+00
             -0.493611463568433E+00
             -0.180402564044935E+01
             -0.478292380116763E-01
             -0.124747905709471E+01
             -0.107152805682366E+01
             -0.752245555800011E+00
              0.366800157621432E+00
             -0.731570109430680E+00
              0.405529410413737E+00
             -0.113924190491006E+01
             -0.472956436335448E-02
             -0.781625386721973E+00
              0.102499861846748E+00
              0.145808868427799E+00
              0.581058600623232E+00
             -0.361206182269417E+00
             -0.357147637074018E+00
              0.542124228989933E+00
              0.111752209960948E+01
              0.587819978174148E+00
              0.186048818543163E+00
             -0.133371226247347E+01
             -0.247994968078072E+00
             -0.519928437482486E+00
             -0.116043168720630E+01
              0.802996220398404E+00
             -0.622870023327515E+00
             -0.132840106996411E+00
             -0.462145991943022E+00
             -0.187029010533167E+01
              0.102529842601862E+01
             -0.319997276507694E+00
              0.731173937450425E+00
             -0.137258575429658E+01
              0.119247905261695E+01
              0.928255164210077E-01
             -0.521245639332339E+00
              0.131746949259144E+00
             -0.421816430568130E+00
             -0.123636213559631E+01
              0.329902237482541E+00
              0.601447915067871E+00
              0.100746436562442E-01
             -0.634450542142581E+00
             -0.244423381015554E+00
              0.353811424628231E+00
              0.639479263847892E+00
              0.116863077862736E+01
              0.437049271125453E+00
             -0.428537093812060E+00
              0.172614225896252E+01
              0.463773721768929E+00
              0.801609431044706E+00
             -0.278291209286101E+00
              0.561953813849818E+00
              0.378004970681274E+00
             -0.114360162948819E+01
             -0.404848388309646E+00
             -0.720984716161795E+00
             -0.671575359583099E+00
             -0.181089669393531E+00
             -0.217295828845675E+00
             -0.762967681595353E+00
             -0.209356273500363E+01
             -0.509393881220217E+00
              0.300756314755475E+00
              0.103447020791496E+00
              0.215184562007001E+00
              0.815256361473892E+00
              0.275475894851081E+00
              0.584034152638294E+00
             -0.827462548138157E+00
              0.813394517552975E+00
             -0.793330172083775E+00
             -0.129583667220135E+01
              0.342519402877910E+00
             -0.725402815394809E+00
             -0.768480708943721E+00
             -0.295082681492358E+01
             -0.154873377762586E+00
              0.152768616987266E+01
              0.801734736855147E+00
             -0.188789454951875E+00
             -0.187182027832544E+00
              0.677321884862176E+00
              0.119023519036353E+01
             -0.723662309048680E+00
             -0.235658638154458E+00
             -0.637373440730066E+00
             -0.636819076909925E+00
             -0.591876609413076E+00
              0.264585424568811E+00
              0.133704895675096E+01
             -0.122250034937991E+01
             -0.990703879567302E+00
              0.428801518422048E-01
             -0.241793040594902E+00
             -0.346329417801154E+00
             -0.169099797519303E+01
              0.106895988216103E+01
              0.400908708777655E+00
              0.128641523872444E+00
              0.971446372336391E+00
             -0.573376008972559E+00
              0.623372654073426E+00
              0.535304684172625E+00
              0.879491755988235E-01
             -0.152308945421848E+00
              0.200865220450715E+00
             -0.275628090497842E+00
              0.911235939150429E+00
             -0.789724656921165E+00
              0.811719264068332E+00
              0.179376339109709E+00
              0.268616375219517E+00
              0.381176938292862E+00
             -0.149400999630910E+01
              0.141076533775033E+00
             -0.121221275361678E+01
             -0.913475097411410E+00
             -0.907904833131983E+00
             -0.918737366732815E+00
              0.313240381251507E-01
              0.302805204607597E+00
              0.905964289193818E+00
              0.158297155612574E+00
              0.259014896695575E+00
             -0.130868409727929E+01
             -0.531655956567732E+00
              0.598146257332019E+00
             -0.165048052168282E-02
             -0.322238101986692E-01
             -0.170136136821093E+00
              0.685142513273897E+00
             -0.169417381392269E+01
              0.248358917628744E+00
              0.439964789767082E+00
              0.749747503783240E+00
              0.711859741855810E+00
             -0.105950395144570E+01
              0.244267354026561E+00
              0.101707247699773E+00
              0.135637184743059E+00
              0.411169115710965E-01
             -0.374714889961078E+00
             -0.744090100079194E+00
              0.307710008684940E+00
              0.109920176617138E+01
             -0.817355949034138E-01
              0.231375465820715E+00
              0.217894953137347E+00
             -0.543710335386170E+00
             -0.546168654783669E+00
             -0.222984996703553E+01
             -0.741520212373110E+00
             -0.100875753194358E+01
             -0.145410740796948E+00
             -0.122421758103596E+01
              0.141605813064454E+01
             -0.602572538876544E+00
             -0.996697638930983E+00
             -0.292852498532181E+01
              0.125794646032471E+01
              0.261838980713394E+00
              0.482637176141427E-01
             -0.112825550948083E+01
              0.864198531634486E-01
             -0.271549788475983E+00
             -0.587621636721004E+00
              0.142106225462077E+00
              0.583775995042364E+00
              0.116694983759433E+00
             -0.328684143455662E+00
              0.131243657249343E-01
              0.692161875649333E-02
              0.268002010140147E+00
             -0.121917339198368E+01
              0.132006210106821E+01
             -0.767748491061632E+00
             -0.477642429947782E+00
             -0.864582033784655E+00
             -0.191780833330221E+01
              0.114521540754930E+00
             -0.979838255715776E+00
             -0.396838713174761E+00
              0.592391124309620E+00
             -0.465360422147683E+00
             -0.140946157769054E+00
             -0.219540251631919E+00
             -0.454584610755949E+00
              0.390600647240522E-01
              0.949652111546116E+00
             -0.978896712818441E+00
              0.184731388890754E+01
             -0.403701598710755E+00
              0.634902364765674E+00
             -0.246516560837924E+00
              0.253569347742997E+00
             -0.232994745040425E+00
              0.853431623062660E+00
              0.119707525707542E+01
              0.335687299382123E+00
              0.937951484472780E+00
             -0.602079297049985E+00
             -0.888789114842439E-01
             -0.474305872871614E+00
              0.117277411359835E+01
              0.101474679343632E+01
              0.752289816620396E+00
             -0.260516281017301E+00
             -0.496486779346976E+00
              0.449745974563121E+00
             -0.495726944771935E+00
             -0.270723856762450E+00
             -0.129166493686036E+00
             -0.610800512507875E+00
              0.942178443121801E+00
             -0.166573514760571E+00
              0.678143271050337E+00
              0.334020807236811E+00
              0.310409786567467E+00
             -0.647869899370963E+00
              0.542363532589548E+00
             -0.263485753731041E+00
             -0.146933224544513E+00
             -0.277664747441069E-01
             -0.943184107305038E+00
              0.146431160161676E+01
             -0.537618313098379E+00
              0.167631045570387E-01
              0.418973719418516E+00
              0.363403636720093E+00
              0.139510824214198E+01
             -0.407580814061418E+00
              0.141652135080456E+01
              0.125457442510864E+01
             -0.177288385436645E+01
              0.164297177087647E+00
             -0.357618218111524E+00
              0.187579829169734E+00
              0.889564382715031E-01
              0.344495980950466E+00
              0.117967196046669E+01
              0.174251320410897E+01
             -0.140605989778599E+01
              0.143447396445101E+01
             -0.180080143566242E+01
             -0.150650283359446E+01
             -0.238712765556176E+00
              0.286894786851537E-01
              0.141067750149809E+01
              0.654663289085530E+00
             -0.313148305612607E+00
             -0.162111399308867E+01
              0.124598427327362E+01
             -0.801362665941047E+00
              0.136371529314854E-01
             -0.689855082041992E-01
              0.240299749709785E+01
             -0.461752744373991E+00
             -0.194637057077908E+01
              0.569638425064404E+00
             -0.299898222054964E+01
              0.244557113460276E+00
             -0.705837011012325E+00
             -0.311060947305259E+00
             -0.504091841711713E+00
             -0.109046912319943E+01
              0.709636357099785E+00
             -0.639627856139515E+00
             -0.222197403550023E+00
             -0.141454603756984E+01
             -0.100146011092840E+00
             -0.965257634728084E+00
             -0.140697931359547E+01
             -0.210179887790108E+01
              0.171096799556247E+00
             -0.621623282308009E+00
              0.695199521188208E-01
             -0.210697047740881E+00
             -0.151587775220566E+01
             -0.116420073674754E+01
             -0.103869512591796E+01
             -0.101692124201210E+01
              0.969546703987164E+00
              0.173590697976061E+00
             -0.890511185258192E+00
             -0.424005549882665E+00
             -0.482157583812177E+00
              0.721689483468883E+00
             -0.613830187183406E+00
             -0.157661919060521E+00
             -0.498623991826749E+00
             -0.742961270628885E+00
             -0.728910201238850E+00
              0.765662064160917E+00
             -0.249740283252692E+00
             -0.165974053251177E+01
              0.147736965037574E+01
              0.868773138962064E+00
              0.977506168303659E-01
             -0.144515583596333E+01
             -0.140593185011238E+01
              0.154650203420339E+00
              0.396908798327420E-01
             -0.609777306183098E+00
             -0.873079839049888E+00
              0.625360428750847E+00
             -0.120413690545005E+00
              0.493133789786977E+00
              0.878904100484094E+00
              0.674407870274365E+00
              0.498495589209544E+00
              0.420461835265202E+00
             -0.417253014649265E+00
             -0.250538015524528E+00
             -0.323377909555834E+00
             -0.684156390181561E+00
             -0.912267938311457E+00
             -0.116208191857616E+01
             -0.690915904130709E+00
             -0.215924444714179E+00
             -0.144228318219738E+01
             -0.240459429340531E+00
              0.583955861650129E+00
             -0.144233021711256E+01
              0.600227477309686E+00
              0.461759809496965E+00
             -0.129625554816455E+01
             -0.105259084108508E+01
             -0.384102202960631E+00
              0.288350352150780E+00
             -0.754688245357309E+00
              0.136406188538518E+01
              0.121016996401902E+01
             -0.141597640877560E+01
              0.862658182617757E+00
              0.675479406301067E+00
              0.173954189884833E+00
              0.389968449687672E+00
             -0.775938750956652E+00
             -0.280962785955662E+00
              0.814820561769025E-01
              0.357220426567810E+00
              0.802111283061389E+00
             -0.101551592881086E+01
             -0.153009403679652E+00
              0.326696587381756E+00
              0.461982573160178E-01
             -0.601240660606765E+00
              0.338482337387544E+00
             -0.495045577932270E+00
             -0.319397869803486E+00
              0.242779292390107E-01
             -0.113889321890892E+01
              0.899345417863828E-02
             -0.278540359693944E+00
             -0.266181708847272E+00
              0.185023543091209E+00
             -0.100780481335592E+01
              0.102587769743109E+01
             -0.423623992752030E+00
             -0.243287206113521E+01
             -0.160173929725554E+01
              0.669452856160676E+00
             -0.701070622252723E+00
             -0.392470869679137E+00
             -0.492469826488504E+00
             -0.322769035669694E+00
             -0.189691560701310E+01
             -0.934896928075286E-01
             -0.115722559643268E+01
             -0.569164046597820E+00
              0.444942147720231E+00
              0.140118566911433E+01
              0.458162931862693E-01
              0.399106069635593E-01
              0.109833275944235E+01
             -0.969273012386773E+00
              0.571774787773183E+00
              0.141750364800977E+00
             -0.899938930645089E+00
             -0.462530272010958E+00
              0.388457153110746E+00
              0.409856447106975E-01
              0.264726755480130E+00
              0.278106264405574E+00
             -0.433986975278098E+00
             -0.537943803199049E+00
             -0.921717526675558E+00
              0.897355821553397E+00
             -0.123668823231902E+01
             -0.905350364569635E+00
              0.270673037781073E+00
             -0.160389597117897E+01
              0.372652444606029E+00
              0.106277692022611E+01
             -0.177987097451343E+00
              0.287446931644533E+00
             -0.546625167752918E+00
             -0.394288513831102E+00
              0.193212632411644E+00
              0.669796086816748E+00
             -0.694376758657775E+00
              0.453204813306974E+00
             -0.257994800084838E+00
              0.111016234825092E-01
              0.397835086686884E+00
              0.257193653199407E+00
             -0.169275883373966E+00
             -0.160727679007087E-01
              0.304370546799349E+00
              0.502144801426651E+00
             -0.130237049535665E+01
              0.127018473569542E-01
              0.101952682891020E+01
             -0.170948772264631E+01
              0.614602983856274E+00
             -0.214531171375028E+01
             -0.180473783846580E+00
             -0.273894439552030E+00
             -0.780186822006961E-01
             -0.188321032156334E+00
             -0.524890498689352E+00
             -0.125636746213047E+00
              0.305297261868941E+00
             -0.408156893712421E+00
              0.211018874199418E+00
              0.164756302625928E+01
             -0.110257458617447E+01
             -0.485350123368566E+00
              0.723268152299723E+00
              0.399640423982474E+00
              0.734749038590653E+00
              0.299915535972634E+00
              0.421071642695082E+00
             -0.279291315663305E+00
             -0.918508538461360E+00
             -0.809332750676102E+00
             -0.538416764022036E+00
              0.607438623124965E-01
             -0.772438127446488E+00
             -0.219723467647449E+00
              0.123557388224615E+00
              0.441117809023122E+00
             -0.135590178102914E+00
              0.106126528391759E+01
             -0.110443426950772E+01
             -0.563031765767192E-01
             -0.143754794791284E+00
              0.569827727376346E+00
             -0.828990824070861E+00
             -0.526396300201326E+00
              0.361045121262269E+00
              0.916163051038839E+00
              0.133558711066964E+01
              0.623137855492108E+00
              0.827159311777150E+00
             -0.488838994857880E+00
              0.115878936717992E+01
              0.117657665350849E+01
             -0.920281428234855E-01
              0.649069995961480E+00
              0.724930731586396E+00
             -0.394178745987270E+00
              0.172468274161827E+00
              0.121551869439517E+01
             -0.434498544644720E+00
             -0.186367369038571E+00
             -0.117573929413045E+01
              0.459281946859903E+00
             -0.214483790684584E+00
              0.372079516720060E+00
              0.816473377821643E-01
             -0.740750363488334E+00
              0.859064595666512E+00
              0.744104543993227E+00
             -0.531154592991434E+00
              0.302667697164413E+00
             -0.106095808091622E+01
             -0.100094259356034E+01
              0.455091141827801E+00
             -0.127192562348458E+01
             -0.611770966305684E+00
              0.861529755893002E-01
              0.157126659935821E+01
             -0.394208051559102E+00
             -0.183631519749115E+00
             -0.320491125456091E+00
              0.208909873840616E+01
              0.357578009245269E+00
             -0.765283223171154E+00
              0.126998245520326E+01
              0.114885362601673E+01
              0.602213511426684E+00
              0.144722711150599E+01
              0.153504432649822E+01
             -0.130120509993622E+00
             -0.565893934740021E+00
             -0.524809492722349E+00
              0.478481347857457E+00
              0.702523348611787E+00
             -0.112802104855608E+00
             -0.426164559245265E+00
             -0.107705145531776E+01
             -0.456107937373448E+00
             -0.859204309227554E+00
              0.597039381050754E+00
              0.296396806776228E+00
              0.108670239851249E+01
              0.187307216626397E+00
             -0.447427884975479E+00
             -0.161377296847282E+00
              0.752000616838199E+00
              0.211924098776841E+00
              0.107286677032757E+01
              0.105104107307309E+01
             -0.206288289705586E+00
             -0.134701367639601E+00
             -0.181018673902972E+01
              0.935022870813309E+00
             -0.585579232764868E-01
              0.100008620346641E+01
             -0.428545217486950E+00
             -0.118643757417735E+01
              0.349082773746284E+00
              0.131225276614853E+01
             -0.473560034153016E+00
              0.126458392252277E+01
             -0.133276231007102E+01
             -0.462589210390445E+00
             -0.153881953035877E+01
              0.371108267118910E+00
              0.149857359053405E+00
              0.995193459898198E-01
             -0.113140606403604E+01
              0.165379641489430E+01
              0.982866229172988E+00
              0.122958589833640E+00
             -0.903026328543793E+00
              0.378352489993369E+00
             -0.408592440633121E+00
             -0.229611110570231E+00
             -0.452986978878206E+00
              0.338901974728915E+00
             -0.238579402934021E+00
             -0.339545420858063E+00
              0.410189081706919E+00
              0.432708873089031E+00
             -0.164147428047798E+01
              0.358998338885392E+00
              0.121549957940546E+01
              0.786661728620636E+00
             -0.270533545194244E+00
              0.107071381423318E-01
             -0.682716353822237E+00
              0.105416450161890E+01
              0.224736424189193E+00
             -0.808469941071852E-01
             -0.970467513532469E-01
              0.202846741353196E+01
             -0.733804269859579E-01
              0.519957767764309E+00
              0.133576547752932E+01
              0.181577152812261E+01
              0.111903205552369E+01
              0.767356909410144E+00
             -0.112835123501546E+01
             -0.843120568329093E+00
              0.671572864103063E+00
              0.876480710231764E-02
              0.565221917842140E+00
              0.261068117875889E+00
              0.115891770704096E+01
             -0.146433183566917E+01
             -0.912842833054092E+00
             -0.178437794440529E+00
             -0.159639013803772E+01
              0.329660533880713E+00
              0.781401329828675E+00
              0.127652959719333E+00
             -0.391383569428850E+00
              0.401078394574713E+00
              0.254217933888104E+01
              0.548061632448409E+00
              0.320623209256517E+00
             -0.913531823567299E+00
             -0.113978532633464E+01
             -0.258921978303166E+00
              0.504100821336406E+00
             -0.107358522975943E+00
              0.418017216570105E+00
              0.634017107107489E+00
             -0.119717048639250E+01
              0.491709355752057E+00
              0.751836307587300E+00
              0.109859876652738E+01
             -0.177379369680536E+00
              0.466721032285129E-01
             -0.135923083934210E+00
             -0.860167382247822E+00
             -0.133812509821987E+01
              0.146106634955586E+01
             -0.178547827893202E+00
             -0.102854863874971E+01
              0.975129438835660E-01
             -0.532038860039672E+00
              0.160372190495187E+01
             -0.398042690133879E+00
             -0.675599417738500E+00
              0.633176362577401E+00
             -0.264598363309155E+00
              0.851702030321312E+00
             -0.489045571297666E-01
              0.177322280678930E+01
              0.921284487165617E+00
              0.131584972632132E+00
             -0.707578065394467E+00
              0.507872570828352E+00
             -0.101103415869299E+01
             -0.112799074291358E+00
              0.118607956400004E+01
             -0.468515872102498E+00
             -0.828355551829977E+00
             -0.397627268968786E+00
              0.972792132952147E+00
              0.249278612400238E+00
             -0.153688078712374E+01
              0.627708544272161E+00
              0.185340546920701E+00
              0.173121510040826E+00
             -0.897411759304610E+00
              0.158299045525085E+00
              0.652003470109396E+00
              0.911964718416173E+00
              0.115388148164589E+01
              0.609702670417822E+00
              0.154692980381446E+00
             -0.974679409553579E+00
             -0.780945415258637E+00
             -0.127905040251141E+01
             -0.198957337072814E+00
              0.621360718280901E+00
             -0.290217612213139E-01
              0.975585633488452E+00
             -0.581719306678899E+00
              0.332486422927095E+00
             -0.351857513397128E+00
             -0.487730484807756E+00
              0.106872555131329E+01
              0.110368102316722E+00
              0.111411662534365E+01
              0.978315003216661E-01
              0.404722257031413E+00
             -0.294442908631975E+00
              0.113010070667396E+01
             -0.237271123222113E+00
             -0.315755959674151E-01
             -0.144340778827468E+01
             -0.157278026542689E+00
              0.131207691798314E+01
              0.124721245401800E+01
              0.425655488522316E+00
             -0.269835669905533E+00
              0.440032415641927E-01
             -0.385838412293410E+00
             -0.251063549509258E+00
              0.162088143267091E+01
              0.920432697470641E-01
             -0.495412124303197E+00
             -0.200835249267462E+01
             -0.890336512772809E+00
             -0.686342791114809E+00
             -0.117996392782460E+01
             -0.108161132380847E+01
             -0.133730205641661E+01
             -0.825432827208182E+00
             -0.572059374919199E+00
             -0.862106165910024E+00
              0.820978236315030E+00
             -0.395882075742929E+00
             -0.172741211137106E+01
              0.780143359221799E+00
             -0.594021460435165E+00
             -0.147484244552711E+01
              0.186877165676848E+01
             -0.444825691838781E+00
              0.317788439656291E+00
              0.741499798426569E+00
              0.152294600470192E+00
              0.444790456925809E+00
              0.127728902678772E-01
              0.142305173191140E-01
             -0.212143502396844E+00
             -0.132454253145053E+01
              0.199121549463487E+00
             -0.229063671324487E+01
              0.125034268429405E+01
             -0.742876652462590E+00
             -0.299182171310041E+00
             -0.357891311581259E+00
              0.345750358897667E+00
             -0.326415611560848E+00
              0.561151292989660E+00
             -0.105557057389731E+01
              0.708076366782131E+00
              0.740043551768201E+00
              0.240539062554538E+00
              0.145329466299095E+00
              0.390157819517807E+00
              0.149967914645935E+00
              0.594841463332383E+00
             -0.114430116006351E+00
             -0.125231772585215E+01
              0.183315402461013E+00
             -0.600956290603308E+00
             -0.427106702792983E-01
              0.956789221243099E+00
             -0.150126297733422E+01
              0.116909775024698E-01
              0.439610615395480E-01
              0.163693897410813E+00
              0.584824895779157E+00
             -0.245421665318442E+00
              0.156297483773827E+01
              0.769452349609757E+00
             -0.302064042293182E+00
             -0.213675601715462E+00
              0.915056795947682E-01
              0.147358276144235E+01
             -0.944813264881590E+00
             -0.189536499997796E+01
              0.525918680215639E+00
             -0.128680836086196E+00
             -0.251258898440027E+00
              0.345677034132803E+00
              0.142761952120302E+01
              0.799256780700524E+00
             -0.331484109266143E+00
             -0.968920089751627E+00
             -0.195853246478809E+00
              0.518964174212559E+00
             -0.302740403267385E+00
             -0.139083734645596E+01
             -0.123246560792753E+00
             -0.175842591789898E+01
             -0.921204652247932E+00
              0.155009526311724E+01
             -0.942968507828811E+00
             -0.129193197463717E+01
             -0.993994875796489E+00
             -0.711452703509945E+00
              0.597845204094622E+00
              0.155324873476621E+01
             -0.125748786741588E+00
              0.499117814072746E+00
             -0.339261616390561E+00
             -0.124271104093190E+01
              0.952341436067916E+00
             -0.870017996077490E+00
              0.512635883568661E+00
              0.579017745336516E+00
             -0.257148093791832E+00
              0.756234469707460E+00
              0.753265310863268E+00
              0.212854249212856E+01
             -0.243403030592733E+00
             -0.947104922799622E+00
             -0.123069901461625E+01
             -0.317767262173057E+00
             -0.684104893372363E+00
              0.179593554762305E+01
             -0.831752805499547E+00
              0.177475514659883E+00
              0.859497694804929E-01
             -0.397494621100543E+00
             -0.152598876285156E+01
             -0.120374016995818E+00
              0.184220296480541E+01
              0.332191688550645E+00
              0.151021931768575E+00
             -0.101032108927337E+01
             -0.101444145537901E+01
             -0.270117446264505E+00
              0.849583333731388E+00
             -0.475269135263715E+00
              0.189395558770207E+01
             -0.802503016607061E+00
              0.338684937360339E+00
             -0.329232834532192E+00
             -0.114913244834163E+01
              0.110209250706156E+00
             -0.102371308561832E+01
             -0.136704731068873E+01
              0.158479770226030E+00
              0.289152644953612E-01
              0.899094951112534E+00
              0.471477525099108E+00
             -0.632625507555276E+00
              0.429989722749859E+00
             -0.155592866101536E+01
             -0.917692303638773E+00
              0.172781143559777E+01
              0.129256324922733E+00
             -0.155042073019608E+00
             -0.501157138985450E+00
             -0.101561190600385E-02
             -0.189233533517838E+00
              0.162448382815852E+01
              0.742879060202362E+00
             -0.211109769810797E+00
             -0.657300450262426E-01
             -0.735440200285298E+00
             -0.295728600647952E+00
             -0.119307388865690E+01
              0.938479142431417E+00
              0.117324997551052E+00
              0.179925873637849E+00
              0.299490281734698E+00
             -0.216679563017039E+00
             -0.393006749219678E+00
              0.577941419505539E-01
             -0.201092259869449E+01
             -0.227538613074832E+00
             -0.135176234952642E+00
             -0.125679160419027E+00
              0.978348595593969E+00
              0.115351149788293E+01
              0.311035677578650E+00
             -0.172827472497272E+01
              0.119619356282802E+01
             -0.450143006513173E+00
             -0.688597397470053E+00
             -0.161465820019986E+01
             -0.568398049823370E+00
              0.109216639859194E+01
              0.571912403682049E+00
              0.290278025046382E+00
              0.620439007779631E+00
             -0.102926941953106E+01
             -0.865962585282402E+00
              0.113211902659459E+01
              0.769526974789124E+00
              0.905446460494868E+00
              0.583716561257024E-01
              0.171769916838135E+00
              0.982617336008055E+00
              0.184410057289843E+01
             -0.389420270611418E+00
              0.709022836410291E+00
             -0.398811585107280E+00
             -0.806398421286775E+00
             -0.615053178859316E+00
             -0.563691726640511E+00
             -0.254207494849187E+00
             -0.908911322132549E+00
             -0.402862331488227E+00
             -0.242230772197820E+01
              0.584259451890317E+00
              0.505479652484869E+00
             -0.408759974641750E-01
             -0.702447149362383E+00
             -0.383325238805991E+00
             -0.100724781201308E+01
              0.141588177083680E+00
              0.148194927207706E+01
             -0.344951734749010E+00
             -0.339936945590022E+00
              0.339576921621191E+00
             -0.902204003033244E+00
              0.162541384673474E+01
              0.320167602265457E+00
              0.177428417271523E+00
              0.990714631690595E+00
             -0.483128875237009E-01
              0.108938498766628E+01
              0.340129209851975E+00
             -0.948658685288342E-01
              0.255870222956974E+00
             -0.127414364902279E+00
              0.130429602499983E+01
              0.130343961540110E+00
              0.348244260875928E+00
             -0.150212226651603E+00
              0.193134708990417E+00
             -0.174507291878908E+01
             -0.684724229133147E+00
             -0.887236748013214E+00
              0.986183979190415E+00
             -0.632637842493998E+00
             -0.108940855050124E+01
              0.109174469541481E+01
             -0.276764735725299E+00
              0.794899917168508E+00
             -0.167680672892038E+01
              0.401906308470365E+00
              0.104925385296093E+00
              0.893264144978083E-01
             -0.213970238078256E+00
             -0.108597613360953E+00
              0.924414563313414E+00
              0.565323480776794E-01
             -0.932687998576218E+00
             -0.374233309589490E+00
              0.399887522352628E+00
             -0.215831548882546E+01
             -0.166778482295974E+01
              0.299093753837116E-01
              0.260474386510785E+00
             -0.889329218264775E+00
             -0.162217408308072E-01
              0.195786220359876E+01
              0.608233321566566E+00
             -0.101653909855024E+01
              0.146695878516411E+00
             -0.189083969371977E+00
              0.221214682144956E+00
             -0.626784501878320E+00
              0.378573154159261E+00
              0.445823544542570E+00
             -0.164851170403129E+00
              0.207213785362317E+01
             -0.117184535849982E+00
             -0.589953622967123E+00
              0.525307539361034E+00
              0.798588562375617E+00
             -0.634664975584635E+00
             -0.234451931193416E-01
              0.180013493449202E+01
             -0.473888384345464E-01
              0.961425563180191E+00
              0.306395891698590E+00
             -0.167999353744328E+00
             -0.320191153209910E+00
              0.942138194283338E+00
             -0.108978735045567E+01
             -0.602757935360363E-01
             -0.352155924989154E+00
             -0.775980006316869E+00
              0.204386688649498E+00
              0.415729996752704E+00
              0.185175449468264E-01
             -0.421959408068240E-01
             -0.739133164777239E+00
              0.319428480380025E+00
             -0.357591879268506E-01
             -0.436351129724077E+00
             -0.400473745353892E+00
              0.379076436490791E+00
             -0.255660611513822E-01
             -0.708974797928216E+00
             -0.196728318966735E+01
              0.918406752657086E-01
              0.346030810906458E+00
             -0.860373774782123E+00
             -0.442734880805498E+00
              0.151220895375759E+01
              0.186933885156075E+00
              0.762465268258470E+00
              0.164860428394479E+00
              0.708624316227407E+00
              0.430829426388071E-01
             -0.743237283685250E+00
             -0.131026698634330E+00
              0.118804922765507E+00
              0.539199294073510E+00
              0.145193106492025E+01
              0.915307835938857E+00
              0.399996641865510E-01
              0.186690777699381E+00
              0.111625700423432E+01
              0.507913657071898E+00
             -0.133884728280541E+01
             -0.517359268053361E+00
              0.249757934897020E+00
              0.182083835791597E+00
              0.476417340702082E+00
             -0.975558054907335E+00
              0.131484486400747E+00
              0.726368297583551E+00
              0.914325797466343E+00
             -0.798640564137673E+00
             -0.892638951777958E-02
             -0.438167228214343E-01
             -0.376635003657910E+00
             -0.521824501087445E+00
             -0.253052977278500E+00
             -0.146113536750278E+00
              0.190362771882889E+00
              0.772011876655758E+00
             -0.600601937564255E+00
              0.150294326093613E+01
              0.638198490467319E+00
              0.461298356056279E+00
              0.661840144328776E+00
              0.513427339537099E+00
              0.592938124244111E+00
              0.103198300122622E+01
             -0.874988495475593E+00
              0.116732351866746E+01
             -0.207631251056709E+01
              0.593399486266038E+00
             -0.196522511880915E+01
              0.150432500845066E+01
              0.143724935331244E+01
             -0.164632581264298E+00
             -0.897801136200233E+00
             -0.781298214032166E+00
             -0.103868112138359E+01
             -0.119560656429359E+01
              0.100256752979910E+01
              0.801980570177978E+00
              0.457840706969512E+00
              0.537992251904987E+00
              0.770813603855054E+00
             -0.749756469354983E+00
             -0.283655858955820E+00
              0.100061735936876E+01
             -0.211931253524375E+00
              0.906805788808932E+00
              0.140547565846354E+01
             -0.385578973759639E-01
             -0.138279304830515E+01
              0.468899895460311E-01
              0.489007659881769E-01
             -0.190325373362073E+00
              0.703708843948752E-01
             -0.122224808131580E+01
             -0.239804543900973E+00
              0.223638388106086E+00
              0.207348415266194E+00
              0.906004266471999E+00
             -0.749463399093662E+00
              0.105644428297480E+01
             -0.720545126900974E+00
              0.458159190264766E+00
              0.797489367575380E+00
 
 BEEF-vdW xc energy contributions
           1 :   -13.3632162080478     
           2 :    11.2693597651718     
           3 :   -8.27779888836677     
           4 :    5.45397446514318     
           5 :   -3.22997986222149     
           6 :    1.65728632494632     
           7 :  -0.633641880222719     
           8 :   2.109325221564262E-002
           9 :   0.321149689367230     
          10 :  -0.508589253095099     
          11 :   0.602656283518211     
          12 :  -0.618658198772360     
          13 :   0.565297906544201     
          14 :  -0.473021686273276     
          15 :   0.374909262943525     
          16 :  -0.283498670193270     
          17 :   0.198569855397214     
          18 :  -0.120295027861928     
          19 :   5.029883612804298E-002
          20 :   8.761919655739803E-003
          21 :  -5.388955098630177E-002
          22 :   8.325542110188699E-002
          23 :  -9.714691475263137E-002
          24 :   9.828130286701153E-002
          25 :  -9.084119948829183E-002
          26 :   7.941025098569909E-002
          27 :  -6.594103949564811E-002
          28 :   4.888140944836294E-002
          29 :  -2.942558755819746E-002
          30 :   1.084872813371440E-002
          31 :   -1.60251653935178     
          32 :   -1.01143877022391     

     Writing output data file ./pwscf.save/
 
     init_run     :     64.67s CPU     66.67s WALL (       1 calls)
     electrons    :    463.91s CPU    485.55s WALL (       1 calls)
     forces       :     26.49s CPU     28.26s WALL (       1 calls)

     Called by init_run:
     wfcinit      :      1.45s CPU      1.50s WALL (       1 calls)
     potinit      :     55.78s CPU     57.29s WALL (       1 calls)
     hinit0       :      6.13s CPU      6.23s WALL (       1 calls)

     Called by electrons:
     c_bands      :     83.23s CPU     83.36s WALL (      13 calls)
     sum_band     :     28.94s CPU     31.89s WALL (      13 calls)
     v_of_rho     :    290.60s CPU    306.57s WALL (      14 calls)
     newd         :     10.83s CPU     13.83s WALL (      14 calls)
     PAW_pot      :      1.21s CPU      1.21s WALL (      14 calls)
     mix_rho      :    100.29s CPU    101.54s WALL (      13 calls)
     vdW_kernel   :     33.46s CPU     33.46s WALL (       1 calls)

     Called by c_bands:
     init_us_2    :      0.84s CPU      0.87s WALL (      27 calls)
     regterg      :     81.69s CPU     81.78s WALL (      13 calls)

     Called by *egterg:
     rdiaghg      :      0.02s CPU      0.03s WALL (     138 calls)
     h_psi        :     74.44s CPU     74.48s WALL (     139 calls)
     s_psi        :      1.00s CPU      1.00s WALL (     139 calls)
     g_psi        :      0.25s CPU      0.25s WALL (     125 calls)

     Called by h_psi:
     h_psi:calbec :      1.13s CPU      1.14s WALL (     139 calls)
     vloc_psi     :     71.92s CPU     71.93s WALL (     139 calls)
     add_vuspsi   :      1.04s CPU      1.04s WALL (     139 calls)

     General routines
     calbec       :      1.32s CPU      1.35s WALL (     156 calls)
     fft          :    253.63s CPU    253.66s WALL (    2755 calls)
     ffts         :     46.39s CPU     46.39s WALL (     501 calls)
     fftw         :     68.03s CPU     68.04s WALL (     722 calls)
 
     Parallel routines
 
     PWSCF        :  19m18.12s CPU  20m29.84s WALL

 
   This run was terminated on:  16:49: 2  20Dec2022            

=------------------------------------------------------------------------------=
   JOB DONE.
=------------------------------------------------------------------------------=
